
 Primary working directories    : /scratch/bing/j1_150/molpro.ih9pr9u1mO
 Secondary working directories  : /scratch/bing/j1_150/molpro.ih9pr9u1mO
 Wavefunction directory         : /scratch/bing/j1_150/
 Main file repository           : /scratch/bing/j1_150/

 id        : avlunibas

 Nodes     nprocs
 alchemy-tc    1

 Using customized tuning parameters: mindgm=1; mindgv=20; mindgc=4; mindgr=1; noblas=0; minvec=7
 default implementation of scratch files=df  


 Variables initialized (924), CPU time= 0.00 sec
 
 memory,600,M
 
                                                                                 !file,1,frag_02179.int !save integrals file
                                                         !file,2,frag_02179.wfu !save wavefunctions to file, as well as geom &amp; grad
 
 
 geomtype=xyz
 geometry = {
 8
 energy=-20.572351
 C      -1.445704405595510      0.032225014912896      0.563777253686224
 N      -0.238695356618007      0.165463726502374      0.289832533124696
 O       0.130582755978177      0.366983194719368     -1.038705628413464
 N       1.475951290302292      0.505922014080812     -1.269930165320025
 N       2.296799780250770      0.461139928866926     -0.407886660143031
 F      -2.458627568311829      0.060820442972650     -0.293514328313966
 H      -1.744794625432713     -0.124665053706936      1.590813665969416
 H       1.984488129426828      0.310091911651911      0.565613329410149
 }
 
 
 basis={default=vtz
 I=vtz-pp
 Sn=vtz-pp
 
 set,jkfit,context=jkfit
 default=vqz
 I=def2-qzvpp
 Sn=def2-qzvpp
 
 }
 
 {df-ks,b3lyp,df_basis=jkfit}
 {optg}
 Commands  initialized (760), CPU time= 0.01 sec, 616 directives.
 Default parameters read. Elapsed time= 3.04 sec

 Checking input...
 Passed
1


                                         ***  PROGRAM SYSTEM MOLPRO  ***
                                       Copyright, TTI GmbH Stuttgart, 2015
                                    Version 2018.1 linked Sep 15 2018 11:06:14


 **********************************************************************************************************************************
 LABEL *                                                                                 
  (2 PROC) 64 bit serial version                                                         DATE: 25-Oct-19          TIME: 21:02:44  
 **********************************************************************************************************************************

 SHA1:             28b69543154ff193671d9c596f8a80b1ea1e566d
 **********************************************************************************************************************************
 SETTING GEOMTYPE       =    XYZ

Geometry recognized as XYZ


 Turning off symmetry in density fitting calculation
 To re-enable, use 'symmetry,auto'


 Variable memory set to  600000000 words,  buffer space 

 SETTING BASIS          =    VTZ,I=VTZ-PP,SN=VTZ-PP


 Recomputing integrals since basis changed


 Using spherical harmonics

 Library entry C      S cc-pVTZ              selected for orbital group  1
 Library entry C      P cc-pVTZ              selected for orbital group  1
 Library entry C      D cc-pVTZ              selected for orbital group  1
 Library entry C      F cc-pVTZ              selected for orbital group  1
 Library entry N      S cc-pVTZ              selected for orbital group  2
 Library entry N      P cc-pVTZ              selected for orbital group  2
 Library entry N      D cc-pVTZ              selected for orbital group  2
 Library entry N      F cc-pVTZ              selected for orbital group  2
 Library entry O      S cc-pVTZ              selected for orbital group  3
 Library entry O      P cc-pVTZ              selected for orbital group  3
 Library entry O      D cc-pVTZ              selected for orbital group  3
 Library entry O      F cc-pVTZ              selected for orbital group  3
 Library entry F      S cc-pVTZ              selected for orbital group  5
 Library entry F      P cc-pVTZ              selected for orbital group  5
 Library entry F      D cc-pVTZ              selected for orbital group  5
 Library entry F      F cc-pVTZ              selected for orbital group  5
 Library entry H      S cc-pVTZ              selected for orbital group  6
 Library entry H      P cc-pVTZ              selected for orbital group  6
 Library entry H      D cc-pVTZ              selected for orbital group  6


 PROGRAM * SEWARD (Integral evaluation for generally contracted gaussian basis sets)     Author: Roland Lindh, 1990

 Geometry written to block  1 of record 700


 Point group  C1  



 ATOMIC COORDINATES

 NR  ATOM    CHARGE       X              Y              Z

   1  C       6.00   -2.731985384    0.060896453    1.065384605
   2  N       7.00   -0.451068851    0.312681127    0.547704110
   3  O       8.00    0.246765645    0.693497730   -1.962869162
   4  N       7.00    2.789143712    0.956054047   -2.399820210
   5  N       7.00    4.340322548    0.871428171   -0.770794078
   6  F       9.00   -4.646132746    0.114933980   -0.554661694
   7  H       1.00   -3.297183986   -0.235582809    3.006202144
   8  H       1.00    3.750139062    0.585988786    1.068854285

 Bond lengths in Bohr (Angstrom)

 1-2  2.352438914  1-6  2.508272352  1-7  2.043066845  2-3  2.633433580  3-4  2.592980577
     ( 1.244857063)     ( 1.327320567)     ( 1.081144415)     ( 1.393553037)     ( 1.372146230)

 4-5  2.251009431  5-8  1.952971655
     ( 1.191182893)     ( 1.033468094)

 Bond angles

  1-2-3  118.82956505   2-1-6  126.54775464   2-1-7  119.52550684   2-3-4  115.79247148

  3-4-5  123.36003464   4-5-8  118.61641663   6-1-7  113.92673852

 NUCLEAR CHARGE:                   46
 NUMBER OF PRIMITIVE AOS:         316
 NUMBER OF SYMMETRY AOS:          284
 NUMBER OF CONTRACTIONS:          208   (  208A   )
 NUMBER OF CORE ORBITALS:           6   (    6A   )
 NUMBER OF VALENCE ORBITALS:       26   (   26A   )


 NUCLEAR REPULSION ENERGY  226.09152800


 Basis set:  JKFIT                   
 Basis size:   738
 Attributes:
 Sphericals:   T

 **********************************************************************************************************************************


 Eigenvalues of metric

         1 0.981E-03 0.134E-02 0.156E-02 0.224E-02 0.239E-02 0.261E-02 0.309E-02 0.443E-02


 OPERATOR DM      FOR CENTER  0  COORDINATES:    0.000000    0.000000    0.000000


 **********************************************************************************************************************************
 DATASETS  * FILE   NREC   LENGTH (MB)   RECORD NAMES
              1      18       31.70       500      610      700      900      950      970     1000      129      960     1100   
                                          VAR    BASINP    GEOM    SYMINP    ZMAT    AOBASIS   BASIS     P2S    ABASIS      S 
                                         1400     1410     1200     1210     1080     1600     1650     1700   
                                           T        V       H0       H01     AOSYM     SMH    MOLCAS    OPER   

 PROGRAMS   *        TOTAL       INT
 CPU TIMES  *         1.01      0.83
 REAL TIME  *         8.57 SEC
 DISK USED  *        32.15 MB
 **********************************************************************************************************************************

 Density functional group B3LYP=B88+DIRAC+LYP+VWN5
 Functional: B88(Automatically generated (new) B88)                            Gradient terms: 1
 Functional: DIRAC(Automatically generated (new) DIRAC)                        Gradient terms: 0
 Functional: LYP(Automatically generated (new) LYP)                            Gradient terms: 1
 Functional: VWN5(Automatically generated (new) VWN5)                          Gradient terms: 0
 Use libxcgrid:  F
 Use grid at  1800.2


 Exact exchange will be calculated, factor:  0.2000

 Functional: B88                       Factor:  0.7200
 Functional: DIRAC                     Factor:  0.0800
 Functional: LYP                       Factor:  0.8100
 Functional: VWN5                      Factor:  0.1900

 Generated new metagrid on record  1800.2 with target accuracy 1.0D-06 and 37948 points in CPU time    0.8
 Computed new grid on record 1800.1 in CPU time    0.9
  170120 words reserved for DFT integration

 PROGRAM * RKS-SCF (Restricted closed shell Kohn-Sham)     Authors: W. Meyer, H.-J. Werner, P.J. Knowles, 1993

 NUMBER OF ELECTRONS:      23+   23-    SPACE SYMMETRY=1    SPIN SYMMETRY: Singlet 
 CONVERGENCE THRESHOLDS:    1.00E-06 (Density)    1.00E-06 (Energy)
 INTEGRAL THRESHOLDS:       1.00E-11 (Initial)    1.00E-11 (Final)
 MAX. NUMBER OF ITERATIONS:       60
 INTERPOLATION TYPE:            DIIS
 INTERPOLATION STEPS:              2 (START)      1 (STEP)
 LEVEL SHIFTS:                  0.00 (CLOSED)  0.00 (OPEN) 



 Use fine grid record 1800.2 for energy threshold  1.0D-06


 Orbital guess generated from atomic densities. Full valence occupancy:   32
 Using density fitting in orbital guess

 Coulomb and exchange fitting
 Thresholds for fitting:       THRAO_COUL= 1.0D-14    THRAO_EXCH= 1.0D-12    THRMO= 1.0D-11    THRPROD= 1.0D-11    THRASM= 1.0D-11
                               THR2HLF=    1.0D-11

 Molecular orbital dump at record        2100.2

 Initial occupancy:  23

 ITERATION   DDIFF            GRAD            ENERGY        2-EL.EN.            DIPOLE MOMENTS         DIIS   CPU(IT)  CPU(TOT)  ORB.
    1      0.000D+00      0.000D+00      -378.38114630    800.284887   -1.18861   -0.25733    1.24668    0      2.6      5.5     start
    2      0.000D+00      0.446D-02      -378.27055362    796.862878    0.47830   -0.19505    1.81082    1      2.6      8.2     diag
    3      0.948D-02      0.728D-02      -378.42517783    795.337611   -0.93325   -0.17557    0.77384    2      2.6     10.8     diag
    4      0.724D-02      0.216D-02      -378.43993234    797.959998   -0.65586   -0.21528    1.25551    3      2.4     13.2     diag
    5      0.214D-02      0.544D-03      -378.44068011    797.326335   -0.65353   -0.20639    1.18812    4      2.4     15.6     diag
    6      0.603D-03      0.198D-03      -378.44079313    797.334744   -0.66543   -0.20648    1.18129    5      2.6     18.1     diag
    7      0.216D-03      0.755D-04      -378.44080899    797.359842   -0.65917   -0.20692    1.18867    6      2.6     20.7     diag
    8      0.733D-04      0.207D-04      -378.44081016    797.373598   -0.66132   -0.20704    1.18827    7      2.3     23.0     diag
    9      0.196D-04      0.503D-05      -378.44081023    797.368846   -0.66056   -0.20691    1.18770    8      2.6     25.6     diag
   10      0.661D-05      0.290D-05      -378.44081026    797.367851   -0.66110   -0.20695    1.18764    9      2.5     28.1     orth
   11      0.290D-05      0.433D-06      -378.44081026    797.368204   -0.66113   -0.20695    1.18763    9      2.6     30.7     diag
   12      0.522D-06      0.108D-06      -378.44081026    797.368276   -0.66107   -0.20694    1.18762    0      2.4     33.1     orth

 Final occupancy:  23

 !RKS STATE  1.1 Energy              -378.440810256722
 Nuclear energy                       226.09152800
 One-electron energy                 -966.31466405
 Two-electron energy                  398.68413775
 Density functional                   -36.90181197     B88=-44.13313694 DIRAC=-39.88408675 LYP= -1.65103862 VWN5= -3.14676397
 Virial quotient                       -1.00488913
 !RKS STATE  1.1 Dipole moment         -0.66107105    -0.20694006     1.18762329
 Dipole moment /Debye                  -1.68016496    -0.52595473     3.01843960

 Orbital energies:

         1.1          2.1          3.1          4.1          5.1          6.1          7.1          8.1          9.1         10.1
    -24.734842   -19.238881   -14.443011   -14.400317   -14.367836   -10.324027    -1.274557    -1.181017    -1.041858    -0.919940

        11.1         12.1         13.1         14.1         15.1         16.1         17.1         18.1         19.1         20.1
     -0.720928    -0.641569    -0.612584    -0.563698    -0.525673    -0.522722    -0.488386    -0.438217    -0.395053    -0.393711

        21.1         22.1         23.1         24.1         25.1
     -0.329444    -0.303126    -0.283068    -0.054467    -0.008448


 HOMO     23.1    -0.283068 =      -7.7027eV
 LUMO     24.1    -0.054467 =      -1.4821eV
 LUMO-HOMO         0.228601 =       6.2205eV


 **********************************************************************************************************************************
 DATASETS  * FILE   NREC   LENGTH (MB)   RECORD NAMES
              1      19       32.91       500      610      700      900      950      970     1000      129      960     1100   
                                          VAR    BASINP    GEOM    SYMINP    ZMAT    AOBASIS   BASIS     P2S    ABASIS      S 
                                         1400     1410     1200     1210     1080     1600     1650     1700     1800   
                                           T        V       H0       H01     AOSYM     SMH    MOLCAS    OPER     GRID   

              2       5        3.95       700     1000      520     1800     2100   
                                         GEOM     BASIS   MCVARS    GRID      RKS  

 PROGRAMS   *        TOTAL     DF-KS       INT
 CPU TIMES  *        35.00     33.99      0.83
 REAL TIME  *        37.16 SEC
 DISK USED  *        77.84 MB
 **********************************************************************************************************************************


 PROGRAM * OPT (Geometry optimization)     Authors: F. Eckert and H.-J. Werner


 BFGS update of hessian

 *** Long output written to logfile /home/bing/j1.hpc/frag_02179.log ***


 Geometry optimization using default procedure for command DF-KS-SCF

 Geometry written to block  1 of record 700

 Making model hessian for cartesian coordinates

 Entering Rational Function Geometry Optimization

 ITER.   ENERGY(OLD)    ENERGY(NEW)      DE          GRADMAX     GRADNORM    GRADRMS     STEPMAX     STEPLEN     STEPRMS   CPU-time
   1  -378.44081026  -378.44646367    -0.00565342  0.04965221  0.07821472  0.00434526  0.20183814  0.27908756  0.09867235     30.87
   2  -378.44646367  -378.44879209    -0.00232842  0.02716020  0.04277763  0.00237654  0.17145855  0.21556732  0.07621456     62.05
   3  -378.44879209  -378.44961978    -0.00082769  0.02184591  0.03171386  0.00176188  0.05406783  0.07255717  0.02565283     93.63
   4  -378.44961978  -378.45144724    -0.00182746  0.01912592  0.02747525  0.00152640  0.15916781  0.20842804  0.07369044    128.61
   5  -378.45144724  -378.45315633    -0.00170908  0.01548017  0.02092265  0.00116237  0.25621789  0.30000000  0.10606602    162.79
   6  -378.45315633  -378.45468067    -0.00152434  0.02187151  0.02472375  0.00137354  0.24188943  0.30000000  0.10606602    195.99
   7  -378.45468067  -378.45614417    -0.00146350  0.03397353  0.03588858  0.00199381  0.24136073  0.30000000  0.10606602    231.00
   8  -378.45614417  -378.45799269    -0.00184852  0.04942182  0.05389252  0.00299403  0.21235602  0.30000000  0.10606602    263.38
   9  -378.45799269  -378.46095826    -0.00296557  0.06448469  0.07432913  0.00412940  0.18252160  0.30000000  0.10606602    299.29
  10  -378.46095826  -378.46582972    -0.00487147  0.07203392  0.09304820  0.00516934  0.16916107  0.30000000  0.10606602    333.42
  11  -378.46582972  -378.47155366    -0.00572394  0.07073715  0.10513066  0.00584059  0.17764263  0.30000000  0.10606602    365.85
  12  -378.47155366  -378.45992565     0.01162801  0.10869766  0.14575633  0.00809757  0.13743579  0.30000000  0.10606602    400.04
  13  -378.45992565  -378.48619018    -0.02626452  0.39351563  0.41645050  0.02313614  0.14462618  0.30000000  0.10606602    434.77
  14  -378.48619018  -378.50055610    -0.01436592  0.16215017  0.21315476  0.01184193  0.14083881  0.30000000  0.10606602    469.17
  15  -378.50055610  -378.50875584    -0.00819974  0.11734382  0.13360651  0.00742258  0.21668528  0.30000000  0.10606602    501.58
  16  -378.50875584  -378.50912986    -0.00037402  0.08849230  0.13207908  0.00733773  0.16279783  0.30000000  0.10606602    536.66
  17  -378.50912986  -378.51982315    -0.01069329  0.07032682  0.10583853  0.00587992  0.16059648  0.30000000  0.10606602    569.59
  18  -378.51982315  -378.52598685    -0.00616370  0.05125606  0.08434321  0.00468573  0.17094051  0.30000000  0.10606602    601.87
  19  -378.52598685  -378.52960483    -0.00361798  0.03646790  0.05326885  0.00295938  0.23228998  0.30000000  0.10606602    635.04
  20  -378.52960483  -378.52912176     0.00048307  0.01573067  0.02688642  0.00149369  0.17486324  0.30000000  0.10606602    664.63
  21  -378.52912176  -378.53131719    -0.00219543  0.05847688  0.06545546  0.00363641  0.25957940  0.30000000  0.10606602    698.31
  22  -378.53131719  -378.53102916     0.00028803  0.02390172  0.02942142  0.00163452  0.25416680  0.30000000  0.10606602    729.48
  23  -378.53102916  -378.53147585    -0.00044669  0.04425510  0.05100837  0.00283380  0.25395465  0.30000000  0.10606602    760.68
  24  -378.53147585  -378.52976779     0.00170806  0.03654635  0.04054945  0.00225275  0.14949081  0.30000000  0.10606602    793.88
  25  -378.52976779  -378.53115984    -0.00139205  0.03971606  0.05854136  0.00325230  0.21319626  0.29118390  0.10294905    825.05
  26  -378.53115984  -378.52878697     0.00237287  0.04101545  0.04940908  0.00274495  0.20657375  0.30000000  0.10606602    857.57
  27  -378.52878697  -378.53070308    -0.00191611  0.06774604  0.08651189  0.00480622  0.19459142  0.30000000  0.10606602    891.05
  28  -378.53070308  -378.52975163     0.00095145  0.08264419  0.08923813  0.00495767  0.17615192  0.30000000  0.10606602    924.45
  29  -378.52975163  -378.52681486     0.00293677  0.06796869  0.08710559  0.00483920  0.16331323  0.26586950  0.09399906    958.63
  30  -378.52681486  -378.52830314    -0.00148827  0.14048511  0.14678269  0.00815459  0.21981900  0.30000000  0.10606602    992.46
  31  -378.52830314  -378.52814237     0.00016077  0.06348749  0.09392311  0.00521795  0.11424730  0.20549080  0.07265197   1026.58
  32  -378.52814237  -378.53136653    -0.00322415  0.06080714  0.08481207  0.00471178  0.13823181  0.24531166  0.08673077   1058.12
  33  -378.53136653  -378.52941123     0.00195530  0.03500476  0.04155151  0.00230842  0.21576650  0.30000000  0.10606602   1091.01
  34  -378.52941123  -378.52829297     0.00111826  0.05553985  0.07120876  0.00395604  0.23356783  0.30000000  0.10606602   1125.55
  35  -378.52829297  -378.53149235    -0.00319938  0.12790599  0.13450255  0.00747236  0.09228779  0.12918689  0.04567446   1158.14
  36  -378.53149235  -378.52937253     0.00211982  0.05706804  0.05917161  0.00328731  0.20040216  0.30000000  0.10606602   1189.78
  37  -378.52937253  -378.52387894     0.00549360  0.11387099  0.11439675  0.00635537  0.18107791  0.30000000  0.10606602   1224.31
  38  -378.52387894  -378.53208500    -0.00820606  0.07707375  0.11554416  0.00641912  0.09565643  0.18193899  0.06432515   1257.28
  39  -378.53208500  -378.53173667     0.00034832  0.00706154  0.00892844  0.00049602  0.25443861  0.28423679  0.10049288   1289.71
  40  -378.53173667  -378.53215455    -0.00041787  0.05044240  0.05073619  0.00281868  0.13125534  0.15924398  0.05630125   1319.22
  41  -378.53215455  -378.53211997     0.00003458  0.00382635  0.00422216  0.00023456  0.20171428  0.30000000  0.10606602   1350.97
  42  -378.53211997  -378.53160973     0.00051024  0.00983225  0.01071132  0.00059507  0.22146898  0.30000000  0.10606602   1383.04
  43  -378.53160973  -378.53227398    -0.00066424  0.07321588  0.07353493  0.00408527  0.18053960  0.21582208  0.07630463   1412.54
  44  -378.53227398  -378.53229600    -0.00002202  0.01610012  0.01690819  0.00093934  0.24537172  0.30000000  0.10606602   1446.05
  45  -378.53229600  -378.53237548    -0.00007949  0.01024175  0.01596915  0.00088717  0.11805647  0.17667274  0.06246324   1477.62
  46  -378.53237548  -378.53211124     0.00026425  0.01231567  0.01404207  0.00078012  0.27720506  0.30000000  0.10606602   1509.29
  47  -378.53211124  -378.53251551    -0.00040427  0.05748142  0.05821115  0.00323395  0.18050995  0.27917106  0.09870188   1540.58
  48  -378.53251551  -378.53263891    -0.00012341  0.01242216  0.01344453  0.00074692  0.20629450  0.30000000  0.10606602   1571.87
  49  -378.53263891  -378.53231763     0.00032129  0.00274123  0.00394162  0.00021898  0.22685832  0.30000000  0.10606602   1603.44
  50  -378.53231763  -378.53245318    -0.00013555  0.04275435  0.04290553  0.00238364  0.22797491  0.30000000  0.10606602   1635.28
  51  -378.53245318  -378.53181640     0.00063678  0.04665218  0.04822444  0.00267914  0.24588098  0.30000000  0.10606602   1666.36
  52  -378.53181640  -378.53180735     0.00000905  0.02991838  0.04471714  0.00248429  0.13558977  0.17349042  0.06133812   1697.53
  53  -378.53180735  -378.53166234     0.00014501  0.06827562  0.07020766  0.00390043  0.26745089  0.30000000  0.10606602   1731.76
  54  -378.53166234  -378.53269298    -0.00103064  0.02214437  0.03920996  0.00217833  0.12838692  0.19316685  0.06829480   1764.32
  55  -378.53269298  -378.53283796    -0.00014499  0.01114684  0.01821129  0.00101174  0.18134670  0.25827657  0.09131456   1795.65
  56  -378.53283796  -378.53254956     0.00028841  0.00414857  0.00755881  0.00041993  0.28869540  0.30000000  0.10606602   1826.81
  57  -378.53254956  -378.53277264    -0.00022309  0.05072549  0.05124209  0.00284678  0.16484384  0.27096322  0.09579997   1857.85
  58  -378.53277264  -378.53299554    -0.00022290  0.03023411  0.03036117  0.00168673  0.10139016  0.13118217  0.04637990   1888.83
  59  -378.53299554  -378.53293377     0.00006177  0.00889323  0.01057025  0.00058724  0.10276496  0.16713465  0.05909102   1917.51
  60  -378.53293377  -378.53284205     0.00009172  0.00936580  0.01200893  0.00066716  0.17555972  0.26404692  0.09335468   1948.54
  61  -378.53284205  -378.53278819     0.00005387  0.02957003  0.03060210  0.00170012  0.17769260  0.22669082  0.08014731   1979.60
  62  -378.53278819  -378.53285435    -0.00006616  0.01813015  0.02350928  0.00130607  0.21118970  0.24718173  0.08739194   2010.21
  63  -378.53285435  -378.53298571    -0.00013137  0.00973573  0.01299126  0.00072174  0.23377444  0.30000000  0.10606602   2041.15
  64  -378.53298571  -378.53273399     0.00025172  0.00683366  0.00889784  0.00049432  0.25895152  0.28535182  0.10088710   2071.42
  65  -378.53273399  -378.53305509    -0.00032110  0.02640306  0.02809087  0.00156060  0.13243517  0.15932363  0.05632941   2102.81
  66  -378.53305509  -378.53269888     0.00035622  0.00466322  0.00553454  0.00030747  0.17749463  0.23924170  0.08458471   2132.84
  67  -378.53269888  -378.53306433    -0.00036545  0.04374989  0.04416931  0.00245385  0.12157004  0.19148769  0.06770112   2160.65
  68  -378.53306433  -378.53301381     0.00005052  0.00172573  0.00231751  0.00012875  0.23893736  0.28640782  0.10126046   2189.04
  69  -378.53301381  -378.53305942    -0.00004561  0.00424566  0.00524337  0.00029130  0.18283699  0.20808090  0.07356771   2217.37
  70  -378.53305942  -378.53305024     0.00000918  0.00051432  0.00084191  0.00004677  0.10779044  0.13706852  0.04846104   2245.79
  71  -378.53305024  -378.53305271    -0.00000247  0.00330831  0.00501496  0.00027861  0.14883069  0.19875697  0.07027120   2274.38
  72  -378.53305271  -378.53292421     0.00012850  0.00799868  0.00984075  0.00054671  0.14970889  0.25149425  0.08891664   2304.62
  73  -378.53292421  -378.53298220    -0.00005799  0.01308914  0.01544089  0.00085783  0.24725202  0.30000000  0.10606602   2332.24
  74  -378.53298220  -378.53287758     0.00010461  0.02227886  0.02231659  0.00123981  0.27492547  0.30000000  0.10606602   2359.75
  75  -378.53287758  -378.53291442    -0.00003684  0.01642283  0.01908023  0.00106001  0.17500490  0.30000000  0.10606602   2389.10
  76  -378.53291442  -378.53265386     0.00026056  0.00783222  0.01220106  0.00067784  0.23181761  0.30000000  0.10606602   2418.10
  77  -378.53265386  -378.53256860     0.00008526  0.02900068  0.03251872  0.00180660  0.24721218  0.26179756  0.09255942   2447.19
  78  -378.53256860  -378.53291150    -0.00034290  0.03400657  0.03530704  0.00196150  0.22736253  0.30000000  0.10606602   2474.34
  79  -378.53291150  -378.53272269     0.00018881  0.01737967  0.01829656  0.00101648  0.23795148  0.30000000  0.10606602   2501.34
  80  -378.53272269  -378.53277804    -0.00005536  0.03718894  0.03740055  0.00207781  0.24214249  0.30000000  0.10606602   2532.98
  81  -378.53277804  -378.53276630     0.00001174  0.00995614  0.01301094  0.00072283  0.18504465  0.30000000  0.10606602   2562.07
  82  -378.53276630  -378.53256016     0.00020614  0.01843752  0.02392898  0.00132939  0.23968048  0.30000000  0.10606602   2590.85
  83  -378.53256016  -378.53081655     0.00174361  0.04835010  0.04872664  0.00270704  0.18649897  0.27918761  0.09870773   2622.08
  84  -378.53081655  -378.53265477    -0.00183822  0.02961055  0.05094827  0.00283046  0.20239078  0.30000000  0.10606602   2651.54
  85  -378.53265477  -378.53225242     0.00040235  0.04629260  0.04667501  0.00259306  0.26424697  0.30000000  0.10606602   2680.79
  86  -378.53225242  -378.53027421     0.00197821  0.05256922  0.05704506  0.00316917  0.19644172  0.30000000  0.10606602   2709.69
  87  -378.53027421  -378.53247724    -0.00220302  0.11129495  0.11236745  0.00624264  0.18071549  0.30000000  0.10606602   2738.46
  88  -378.53247724  -378.53076972     0.00170752  0.01857802  0.03286450  0.00182581  0.13184623  0.23378062  0.08265393   2767.16
  89  -378.53076972  -378.53297146    -0.00220175  0.03677062  0.04720801  0.00262267  0.12278299  0.19409970  0.06862461   2795.77
  90  -378.53297146  -378.53287405     0.00009742  0.01265217  0.01300034  0.00072224  0.27136168  0.30000000  0.10606602   2826.25
  91  -378.53287405  -378.53302110    -0.00014705  0.02250543  0.02469868  0.00137215  0.13041445  0.18727897  0.06621311   2855.10
  92  -378.53302110  -378.53295234     0.00006876  0.00443673  0.00488228  0.00027124  0.17644403  0.23788279  0.08410427   2881.54
  93  -378.53295234  -378.53283652     0.00011581  0.00348473  0.00552471  0.00030693  0.26957928  0.30000000  0.10606602   2910.74
  94  -378.53283652  -378.53302698    -0.00019045  0.03553505  0.03557472  0.00197637  0.12949095  0.15793672  0.05583906   2939.45
  95  -378.53302698  -378.53293371     0.00009327  0.01558220  0.01566903  0.00087050  0.26552923  0.27652035  0.09776471   2967.98
  96  -378.53293371  -378.53305099    -0.00011728  0.01954047  0.02027571  0.00112643  0.13905017  0.15198828  0.05373597   2996.43
  97  -378.53305099  -378.53303767     0.00001332  0.00551986  0.00598432  0.00033246  0.24796653  0.27635647  0.09770677   3022.93
  98  -378.53303767  -378.53307188    -0.00003422  0.00196682  0.00272662  0.00015148  0.14356732  0.18384509  0.06499905   3049.76
  99  -378.53307188  -378.53308551    -0.00001362  0.00308182  0.00358667  0.00019926  0.05490999  0.06474639  0.02289131   3076.13
 100  -378.53308551  -378.53306924     0.00001626  0.00137383  0.00209949  0.00011664  0.06922156  0.07792445  0.02755045   3102.79
 ? Warning
 ? No convergence in max. number of iterations

 END OF GEOMETRY OPTIMIZATION.

 Current geometry (xyz format, in Angstrom)

    8
 DF-KS-SCF000/VTZ,I=VTZ-PP,SN=VTZ-PP  ENERGY=-378.53306924
 C         -1.4792291131        0.0078446035        0.7234651076
 N         -0.4368141506        0.1917664768       -0.0227269529
 O         -0.3745870356        0.3533453781       -1.2758539675
 N          3.3579155051        0.6507296675       -1.3177872489
 N          2.5644494092        0.5183966484       -0.5785283599
 F         -2.6818805031       -0.0297257127        0.1824464314
 H         -1.4014889312       -0.1183966141        1.7907478351
 H          0.4516348193        0.2040207324        0.4982371550

 **********************************************************************************************************************************

 Geometry written to block  1 of record 700


 **********************************************************************************************************************************
 DATASETS  * FILE   NREC   LENGTH (MB)   RECORD NAMES
              1      20       33.01       500      610      700      900      700(1)   950      970     1000      129      960   
                                          VAR    BASINP    GEOM    SYMINP    GEOM     ZMAT    AOBASIS   BASIS     P2S    ABASIS    
                                         1100     1400     1410     1200     1210     1080     1600     1650     1700     1800   
                                           S        T        V       H0       H01     AOSYM     SMH    MOLCAS    OPER     GRID   

              2       6        4.65       700     1000      520     1800     2100      700(1)
                                         GEOM     BASIS   MCVARS    GRID      RKS     GEOM   

 PROGRAMS   *        TOTAL      OPTG     DF-KS       INT
 CPU TIMES  *      3137.80   3102.79     33.99      0.83
 REAL TIME  *      2569.33 SEC
 DISK USED  *        77.84 MB
 **********************************************************************************************************************************
 Molecular orbitals read from record     2100.2  Type=RKS/CANONICAL (state 1.1)
 Occupation numbers read from record     2100.2  Type=RKS/RHF (state 1.1)
 Orbital energies read from record       2100.2  Type=RKS/CANONICAL (state 1.1)
 Redundancy group numbers read from rec  2100.2  Type=RKS/RHF (state 1.1)

 DF-KS/cc-pVTZ,I=VTZ-PP,SN=VTZ-PP//DF-KS/cc-pVTZ,I=VTZ-PP,SN=VTZ-PP energy=   -378.533069242424

     OPTG(DF-KS)           DF-KS
   -378.53306924   -378.44081026
 **********************************************************************************************************************************
 Molpro calculation terminated with 1 warning(s)
