
 Primary working directories    : /data2/scratch/molpro.10W94hxD8O
 Secondary working directories  : /data2/scratch/molpro.10W94hxD8O
 Wavefunction directory         : /data2/scratch/wfu/
 Main file repository           : /data2/scratch/int/

 id        : avlunibas

 Nodes                    nprocs
 pc-avl46.chemie.unibas.ch    1

 Using customized tuning parameters: mindgm=1; mindgv=20; mindgc=4; mindgr=1; noblas=0; minvec=7
 default implementation of scratch files=df  


 Variables initialized (924), CPU time= 0.00 sec
 
 memory,600,M
 
                                                                                 !file,1,frag_22000_optg.int !save integrals file
                                                    !file,2,frag_22000_optg.wfu !save wavefunctions to file, as well as geom &amp; grad
 
 
 geomtype=xyz
 geometry = {
    10
  DF-KS-SCF000/VTZ,I=VTZ-PP,SN=VTZ-PP  ENERGY=-355.51617783
  C         -0.2537326406        1.4053934227        0.3470954184
  C         -1.4706671416        0.6396705614        0.5562324261
  O         -1.5313323659       -0.5538821847        0.5827163298
  N          0.0197622790       -3.4921905474       -1.0061738735
  N          0.6359174774       -2.6228107917       -1.2370768408
  C          0.8883179681        0.7781948868        0.1732418525
  N          1.9778282933        0.2120278371        0.2014276318
  H         -0.2771719445        2.4853375752        0.3147434642
  H         -2.3653517473        1.2570017673        0.6770350531
  H          2.3764298122       -0.1087425267       -0.6092414516
 }
 
 
 basis={default=vtz
 I=vtz-pp
 Sn=vtz-pp
 
 set,jkfit,context=jkfit
 default=vqz
 I=def2-qzvpp
 Sn=def2-qzvpp
 
 }
 
 {df-ks,b3lyp,df_basis=jkfit}
 {optg;hessian,numerical=0}
 Commands  initialized (760), CPU time= 0.00 sec, 616 directives.
 Default parameters read. Elapsed time= 0.03 sec

 Checking input...
 Passed
1


                                         ***  PROGRAM SYSTEM MOLPRO  ***
                                       Copyright, TTI GmbH Stuttgart, 2015
                                    Version 2018.1 linked Sep 15 2018 11:06:14


 **********************************************************************************************************************************
 LABEL *                                                                                 
  (10 PROC) 64 bit serial version                                                        DATE: 26-Oct-19          TIME: 09:32:18  
 **********************************************************************************************************************************

 SHA1:             28b69543154ff193671d9c596f8a80b1ea1e566d
 **********************************************************************************************************************************
 SETTING GEOMTYPE       =    XYZ

Geometry recognized as XYZ


 Turning off symmetry in density fitting calculation
 To re-enable, use 'symmetry,auto'


 Variable memory set to  600000000 words,  buffer space 

 SETTING BASIS          =    VTZ,I=VTZ-PP,SN=VTZ-PP


 Recomputing integrals since basis changed


 Using spherical harmonics

 Library entry C      S cc-pVTZ              selected for orbital group  1
 Library entry C      P cc-pVTZ              selected for orbital group  1
 Library entry C      D cc-pVTZ              selected for orbital group  1
 Library entry C      F cc-pVTZ              selected for orbital group  1
 Library entry O      S cc-pVTZ              selected for orbital group  2
 Library entry O      P cc-pVTZ              selected for orbital group  2
 Library entry O      D cc-pVTZ              selected for orbital group  2
 Library entry O      F cc-pVTZ              selected for orbital group  2
 Library entry N      S cc-pVTZ              selected for orbital group  3
 Library entry N      P cc-pVTZ              selected for orbital group  3
 Library entry N      D cc-pVTZ              selected for orbital group  3
 Library entry N      F cc-pVTZ              selected for orbital group  3
 Library entry H      S cc-pVTZ              selected for orbital group  6
 Library entry H      P cc-pVTZ              selected for orbital group  6
 Library entry H      D cc-pVTZ              selected for orbital group  6


 PROGRAM * SEWARD (Integral evaluation for generally contracted gaussian basis sets)     Author: Roland Lindh, 1990

 Geometry written to block  1 of record 700


 Point group  C1  



 ATOMIC COORDINATES

 NR  ATOM    CHARGE       X              Y              Z

   1  C       6.00   -0.479485200    2.655808666    0.655915280
   2  C       6.00   -2.779158118    1.208802171    1.051126947
   3  O       8.00   -2.893798777   -1.046685634    1.101174272
   4  N       7.00    0.037345295   -6.599283709   -1.901393055
   5  N       7.00    1.201709870   -4.956394073   -2.337736424
   6  C       6.00    1.678677671    1.470575208    0.327379655
   7  N       7.00    3.737553796    0.400674543    0.380643058
   8  H       1.00   -0.523779065    4.696607344    0.594778947
   9  H       1.00   -4.469866991    2.375389078    1.279410827
  10  H       1.00    4.490801499   -0.205493594   -1.151299487

 Bond lengths in Bohr (Angstrom)

 1-2  2.745635735  1-6  2.484025158  1-8  2.042194614  2-3  2.258953841  2-9  2.066769226
     ( 1.452927861)     ( 1.314489505)     ( 1.080682850)     ( 1.195386893)     ( 1.093687175)

  4- 5  2.060394806   6- 7  2.320882444   7-10  1.811537986
       ( 1.090313977)       ( 1.228158099)       ( 0.958624619)

 Bond angles

  1-2-3  124.88334092   1-2-9  113.80312004   1-6-7  170.98864086   2-1-6  119.68769977

  2- 1- 8  120.85071824   3- 2- 9  121.30683452   6- 1- 8  119.45243282   6- 7-10  120.24584149

 NUCLEAR CHARGE:                   50
 NUMBER OF PRIMITIVE AOS:         380
 NUMBER OF SYMMETRY AOS:          342
 NUMBER OF CONTRACTIONS:          252   (  252A   )
 NUMBER OF CORE ORBITALS:           7   (    7A   )
 NUMBER OF VALENCE ORBITALS:       31   (   31A   )


 NUCLEAR REPULSION ENERGY  232.35812753


 Basis set:  JKFIT                   
 Basis size:   895
 Attributes:
 Sphericals:   T

 **********************************************************************************************************************************


 Eigenvalues of metric

         1 0.265E-03 0.739E-03 0.854E-03 0.108E-02 0.112E-02 0.125E-02 0.153E-02 0.196E-02


 OPERATOR DM      FOR CENTER  0  COORDINATES:    0.000000    0.000000    0.000000


 **********************************************************************************************************************************
 DATASETS  * FILE   NREC   LENGTH (MB)   RECORD NAMES
              1      18       32.48       500      610      700      900      950      970     1000      129      960     1100   
                                          VAR    BASINP    GEOM    SYMINP    ZMAT    AOBASIS   BASIS     P2S    ABASIS      S 
                                         1400     1410     1200     1210     1080     1600     1650     1700   
                                           T        V       H0       H01     AOSYM     SMH    MOLCAS    OPER   

 PROGRAMS   *        TOTAL       INT
 CPU TIMES  *         0.66      0.59
 REAL TIME  *         0.71 SEC
 DISK USED  *        32.98 MB
 **********************************************************************************************************************************

 Density functional group B3LYP=B88+DIRAC+LYP+VWN5
 Functional: B88(Automatically generated (new) B88)                            Gradient terms: 1
 Functional: DIRAC(Automatically generated (new) DIRAC)                        Gradient terms: 0
 Functional: LYP(Automatically generated (new) LYP)                            Gradient terms: 1
 Functional: VWN5(Automatically generated (new) VWN5)                          Gradient terms: 0
 Use libxcgrid:  F
 Use grid at  1800.2


 Exact exchange will be calculated, factor:  0.2000

 Functional: B88                       Factor:  0.7200
 Functional: DIRAC                     Factor:  0.0800
 Functional: LYP                       Factor:  0.8100
 Functional: VWN5                      Factor:  0.1900

 Generated new metagrid on record  1800.2 with target accuracy 1.0D-06 and 46778 points in CPU time    0.8
 Computed new grid on record 1800.1 in CPU time    0.9
  205282 words reserved for DFT integration

 PROGRAM * RKS-SCF (Restricted closed shell Kohn-Sham)     Authors: W. Meyer, H.-J. Werner, P.J. Knowles, 1993

 NUMBER OF ELECTRONS:      25+   25-    SPACE SYMMETRY=1    SPIN SYMMETRY: Singlet 
 CONVERGENCE THRESHOLDS:    1.00E-06 (Density)    1.00E-06 (Energy)
 INTEGRAL THRESHOLDS:       1.00E-11 (Initial)    1.00E-11 (Final)
 MAX. NUMBER OF ITERATIONS:       60
 INTERPOLATION TYPE:            DIIS
 INTERPOLATION STEPS:              2 (START)      1 (STEP)
 LEVEL SHIFTS:                  0.00 (CLOSED)  0.00 (OPEN) 



 Use fine grid record 1800.2 for energy threshold  1.0D-06


 Orbital guess generated from atomic densities. Full valence occupancy:   38
 Using density fitting in orbital guess

 Coulomb and exchange fitting
 Thresholds for fitting:       THRAO_COUL= 1.0D-14    THRAO_EXCH= 1.0D-12    THRMO= 1.0D-11    THRPROD= 1.0D-11    THRASM= 1.0D-11
                               THR2HLF=    1.0D-11

 Molecular orbital dump at record        2100.2

 Initial occupancy:  25

 ITERATION   DDIFF            GRAD            ENERGY        2-EL.EN.            DIPOLE MOMENTS         DIIS   CPU(IT)  CPU(TOT)  ORB.
    1      0.000D+00      0.000D+00      -355.38383102    794.451328    1.10590    1.62248   -0.92866    0     17.5     34.4     start
    2      0.000D+00      0.523D-02      -355.17321890    771.698140   -0.46739   -0.69171   -0.09685    1     17.6     52.1     diag
    3      0.192D-01      0.864D-02      -355.49508611    782.935774    0.75012    1.37387   -0.59815    2     17.1     69.2     diag
    4      0.136D-01      0.211D-02      -355.51554140    784.079482    0.54309    0.90474   -0.60688    3     16.2     85.4     diag
    5      0.239D-02      0.360D-03      -355.51587735    784.080495    0.47831    0.99650   -0.59132    4     15.2    100.6     diag
    6      0.553D-03      0.235D-03      -355.51615461    783.963017    0.54179    0.94018   -0.58980    5     14.6    115.3     diag
    7      0.278D-03      0.689D-04      -355.51617334    783.934269    0.52833    0.95948   -0.59498    6     15.6    130.9     diag
    8      0.769D-04      0.307D-04      -355.51617743    783.954396    0.52518    0.95762   -0.59335    7     18.6    149.5     diag
    9      0.288D-04      0.672D-05      -355.51617765    783.958434    0.52843    0.95802   -0.59368    8     14.6    164.2     diag
   10      0.972D-05      0.305D-05      -355.51617768    783.957760    0.52719    0.95795   -0.59356    9     15.4    179.6     orth
   11      0.364D-05      0.165D-05      -355.51617769    783.957751    0.52770    0.95790   -0.59358    9     15.6    195.2     diag
   12      0.182D-05      0.435D-06      -355.51617769    783.957811    0.52762    0.95798   -0.59360    9     16.8    212.1     diag
   13      0.499D-06      0.715D-07      -355.51617769    783.957633    0.52761    0.95795   -0.59359    0     15.2    227.2     orth

 Final occupancy:  25

 !RKS STATE  1.1 Energy              -355.516177693888
 Nuclear energy                       232.35812753
 One-electron energy                 -942.35716630
 Two-electron energy                  391.97881674
 Density functional                   -37.49595566     B88=-44.78278751 DIRAC=-40.32577650 LYP= -1.72133296 VWN5= -3.32635179
 Virial quotient                       -1.00509698
 !RKS STATE  1.1 Dipole moment          0.52761238     0.95794867    -0.59358970
 Dipole moment /Debye                   1.34096906     2.43470319    -1.50865571

 Orbital energies:

         1.1          2.1          3.1          4.1          5.1          6.1          7.1          8.1          9.1         10.1
    -19.115392   -14.408988   -14.407086   -14.359860   -10.277665   -10.261148   -10.195144    -1.121563    -1.052060    -0.963017

        11.1         12.1         13.1         14.1         15.1         16.1         17.1         18.1         19.1         20.1
     -0.800030    -0.648073    -0.593709    -0.544380    -0.514795    -0.486899    -0.460982    -0.460271    -0.433190    -0.424886

        21.1         22.1         23.1         24.1         25.1         26.1         27.1
     -0.422831    -0.390437    -0.368181    -0.265218    -0.261891    -0.055062    -0.037712


 HOMO     25.1    -0.261891 =      -7.1264eV
 LUMO     26.1    -0.055062 =      -1.4983eV
 LUMO-HOMO         0.206829 =       5.6281eV


 **********************************************************************************************************************************
 DATASETS  * FILE   NREC   LENGTH (MB)   RECORD NAMES
              1      19       33.98       500      610      700      900      950      970     1000      129      960     1100   
                                          VAR    BASINP    GEOM    SYMINP    ZMAT    AOBASIS   BASIS     P2S    ABASIS      S 
                                         1400     1410     1200     1210     1080     1600     1650     1700     1800   
                                           T        V       H0       H01     AOSYM     SMH    MOLCAS    OPER     GRID   

              2       5        4.48       700     1000      520     1800     2100   
                                         GEOM     BASIS   MCVARS    GRID      RKS  

 PROGRAMS   *        TOTAL     DF-KS       INT
 CPU TIMES  *       229.08    228.42      0.59
 REAL TIME  *        31.24 SEC
 DISK USED  *       110.34 MB
 **********************************************************************************************************************************


 PROGRAM * OPT (Geometry optimization)     Authors: F. Eckert and H.-J. Werner


 BFGS update of hessian

 *** Long output written to logfile /home/bing/j2/p1/frag_22000_optg.log ***


 Geometry optimization using default procedure for command DF-KS-SCF

 Geometry written to block  1 of record 700

 Recomputing wavefunction at reference geometry

 Generated  24 symmetrical displacements

 Numerically approximating hessian using forward gradient differences

 Task list generated. Total number of displacements:     24

    5 tasks completed, CPU=14m 57s Elapsed=2m 0s
   10 tasks completed, CPU=30m 43s Elapsed=4m 8s
   15 tasks completed, CPU=46m 14s Elapsed=6m 15s
   20 tasks completed, CPU=1h 2m 16s Elapsed=8m 25s

 Numerical DF-KS-SCF000 hessian completed. CPU-time:  4531.81 sec, Elapsed:   613.56 sec

 DF-KS-SCF hessian saved to record  5300.2

 Entering Rational Function Geometry Optimization

 ITER.   ENERGY(OLD)    ENERGY(NEW)      DE          GRADMAX     GRADNORM    GRADRMS     STEPMAX     STEPLEN     STEPRMS   CPU-time
   1  -355.51617769  -355.51738619    -0.00120849  0.08344989  0.11686493  0.00486937  0.29996337  0.30000000  0.09486833   4759.02
   2  -355.51738619  -355.49953030     0.01785589  0.06684579  0.09143540  0.00380981  0.22858303  0.30000000  0.09486833   4941.64
   3  -355.49953030  -355.52007181    -0.02054151  0.12187178  0.16482129  0.00686755  0.15150616  0.27381402  0.08658760   5132.67
   4  -355.52007181  -355.52009833    -0.00002653  0.02981690  0.04148246  0.00172844  0.28383899  0.30000000  0.09486833   5306.24
   5  -355.52009833  -355.51997280     0.00012553  0.01838087  0.02580878  0.00107537  0.29020577  0.30000000  0.09486833   5481.64
   6  -355.51997280  -355.52054943    -0.00057663  0.01563772  0.02374999  0.00098958  0.23933421  0.30000000  0.09486833   5667.91
   7  -355.52054943  -355.52080823    -0.00025880  0.01271679  0.01672941  0.00069706  0.25404151  0.30000000  0.09486833   5857.56
   8  -355.52080823  -355.52058381     0.00022442  0.01405429  0.02045937  0.00085247  0.29695269  0.30000000  0.09486833   6047.98
   9  -355.52058381  -355.52113967    -0.00055586  0.03482095  0.03848844  0.00160368  0.19137571  0.28687060  0.09071645   6234.23
  10  -355.52113967  -355.52106623     0.00007344  0.01314379  0.01446507  0.00060271  0.22014090  0.30000000  0.09486833   6415.25
  11  -355.52106623  -355.52111615    -0.00004992  0.02485146  0.02617189  0.00109050  0.19977717  0.30000000  0.09486833   6590.64
  12  -355.52111615  -355.52121256    -0.00009641  0.00278382  0.00546656  0.00022777  0.27396346  0.30000000  0.09486833   6756.04
  13  -355.52121256  -355.52122976    -0.00001719  0.00245145  0.00359974  0.00014999  0.05212789  0.09177126  0.02902062   6904.98
  14  -355.52122976  -355.52122728     0.00000247  0.00210841  0.00246610  0.00010275  0.02081411  0.03176523  0.01004505   7053.21
  15  -355.52122728  -355.52124053    -0.00001324  0.00192143  0.00203383  0.00008474  0.01247949  0.02323335  0.00734703   7207.36
  16  -355.52124053  -355.52122462     0.00001591  0.00020027  0.00041353  0.00001723  0.04427022  0.07407620  0.02342495   7355.08
  17  -355.52122462  -355.52123201    -0.00000739  0.00092155  0.00168991  0.00007041  0.02689554  0.04183523  0.01322946   7507.05
  18  -355.52123201  -355.52123170     0.00000031  0.00444620  0.00451398  0.00018808  0.00930201  0.01631738  0.00516001   7642.33
  19  -355.52123170  -355.52124154    -0.00000984  0.00172005  0.00174721  0.00007280  0.02164057  0.03861194  0.01221017   7779.27
  20  -355.52124154  -355.52124515    -0.00000361  0.00111443  0.00113854  0.00004744  0.04748911  0.10294256  0.03255330   7926.85
  21  -355.52124515  -355.52125241    -0.00000727  0.00050379  0.00063685  0.00002654  0.02572930  0.05195430  0.01642939   8076.15
  22  -355.52125241  -355.52126367    -0.00001126  0.00051096  0.00060447  0.00002519  0.04615651  0.08538341  0.02700060   8229.45
  23  -355.52126367  -355.52121909     0.00004458  0.00089896  0.00103426  0.00004309  0.13549204  0.25789146  0.08155244   8389.53
  24  -355.52121909  -355.52126403    -0.00004494  0.00868693  0.00932897  0.00038871  0.08902911  0.17569725  0.05556035   8556.21
  25  -355.52126403  -355.52127011    -0.00000607  0.00109782  0.00132644  0.00005527  0.02584477  0.03991662  0.01262274   8695.63
  26  -355.52127011  -355.52125714     0.00001297  0.00095094  0.00119103  0.00004963  0.03171348  0.05972714  0.01888738   8842.91
  27  -355.52125714  -355.52125708     0.00000006  0.00267421  0.00292394  0.00012183  0.01054555  0.02185149  0.00691005   8982.39
  28  -355.52125708  -355.52125005     0.00000703  0.00158088  0.00183036  0.00007627  0.04250053  0.07843249  0.02480253   9134.29
  29  -355.52125005  -355.52124362     0.00000642  0.00054803  0.00080597  0.00003358  0.14141940  0.24506918  0.07749768   9298.18
  30  -355.52124362  -355.52124628    -0.00000266  0.00468166  0.00605865  0.00025244  0.07563693  0.14330310  0.04531642   9463.83
  31  -355.52124628  -355.52125016    -0.00000388  0.00065276  0.00101176  0.00004216  0.02379356  0.04125283  0.01304529   9620.11
  32  -355.52125016  -355.52126083    -0.00001066  0.00012283  0.00025794  0.00001075  0.04922047  0.08960113  0.02833436   9774.03
  33  -355.52126083  -355.52125836     0.00000247  0.00193048  0.00205154  0.00008548  0.00975094  0.01381284  0.00436800   9899.79
  34  -355.52125836  -355.52125716     0.00000120  0.00096733  0.00111690  0.00004654  0.01526973  0.02933648  0.00927701  10041.64
  35  -355.52125716  -355.52124412     0.00001304  0.00053191  0.00055062  0.00002294  0.04944372  0.08628454  0.02728557  10195.20
  36  -355.52124412  -355.52125070    -0.00000659  0.00099906  0.00117736  0.00004906  0.01261717  0.01875403  0.00593054  10314.06
  37  -355.52125070  -355.52124729     0.00000342  0.00029768  0.00036905  0.00001538  0.02269201  0.04522515  0.01430145  10454.49
  38  -355.52124729  -355.52124740    -0.00000012  0.00058591  0.00077905  0.00003246  0.03403838  0.06375668  0.02016163  10598.27
  39  -355.52124740  -355.52124685     0.00000055  0.00035131  0.00043648  0.00001819  0.01624478  0.03128451  0.00989303  10727.71
 Freezing grid
  40  -355.52124685  -355.52124821    -0.00000136  0.00030848  0.00036085  0.00001504  0.00346280  0.00694963  0.00219766  10870.64
  41  -355.52124821  -355.52124843    -0.00000022  0.00027607  0.00034209  0.00001425  0.00347075  0.00523338  0.00165494  11015.56

 END OF GEOMETRY OPTIMIZATION.

 Current geometry (xyz format, in Angstrom)

   10
 DF-KS-SCF000/VTZ,I=VTZ-PP,SN=VTZ-PP  ENERGY=-355.52124843
 C         -0.2667933363        1.3576451630        0.2424643646
 C         -1.4571988104        0.6108981228        0.6498839085
 O         -1.4892711799       -0.5645064347        0.9434585554
 N         -0.0771565278       -3.2918635840       -1.2237731216
 N          0.6854124112       -2.5136702138       -1.2832818494
 C          0.9242272158        0.7794894125        0.2091043199
 N          2.0089294984        0.2688742481        0.3059715351
 H         -0.3557054622        2.3940515731       -0.0526126263
 H         -2.3775203078        1.2257325370        0.6695989250
 H          2.4050764892       -0.2666508239       -0.4608140012

 **********************************************************************************************************************************

 Geometry written to block  1 of record 700


 **********************************************************************************************************************************
 DATASETS  * FILE   NREC   LENGTH (MB)   RECORD NAMES
              1      19       33.94       500      610      700      900      950      970     1000      129      960     1100   
                                          VAR    BASINP    GEOM    SYMINP    ZMAT    AOBASIS   BASIS     P2S    ABASIS      S 
                                         1400     1410     1200     1210     1080     1600     1650     1700     1800   
                                           T        V       H0       H01     AOSYM     SMH    MOLCAS    OPER     GRID   

              2       8        5.54       700     1000      520     1800     2100     5300     5500     5300(1)
                                         GEOM     BASIS   MCVARS    GRID      RKS     HESS     HINFO    HESS   

 PROGRAMS   *        TOTAL      OPTG     DF-KS       INT
 CPU TIMES  *     11244.67  11015.57    228.42      0.59
 REAL TIME  *      1557.79 SEC
 DISK USED  *       110.34 MB
 **********************************************************************************************************************************
 Molecular orbitals read from record     2100.2  Type=RKS/CANONICAL (state 1.1)
 Occupation numbers read from record     2100.2  Type=RKS/RHF (state 1.1)
 Orbital energies read from record       2100.2  Type=RKS/CANONICAL (state 1.1)
 Redundancy group numbers read from rec  2100.2  Type=RKS/RHF (state 1.1)

 DF-KS/cc-pVTZ,I=VTZ-PP,SN=VTZ-PP//DF-KS/cc-pVTZ,I=VTZ-PP,SN=VTZ-PP energy=   -355.521248429660

     OPTG(DF-KS)           DF-KS
   -355.52124843   -355.51617769
 **********************************************************************************************************************************
 Molpro calculation terminated
