
 Primary working directories    : /data2/scratch/molpro.wXxWXpL8oi
 Secondary working directories  : /data2/scratch/molpro.wXxWXpL8oi
 Wavefunction directory         : /data2/scratch/wfu/
 Main file repository           : /data2/scratch/int/

 id        : avlunibas

 Nodes                    nprocs
 pc-avl46.chemie.unibas.ch    1

 Using customized tuning parameters: mindgm=1; mindgv=20; mindgc=4; mindgr=1; noblas=0; minvec=7
 default implementation of scratch files=df  


 Variables initialized (924), CPU time= 0.01 sec
 
 memory,600,M
 
                                                                                 !file,1,frag_22001_optg.int !save integrals file
                                                    !file,2,frag_22001_optg.wfu !save wavefunctions to file, as well as geom &amp; grad
 
 
 geomtype=xyz
 geometry = {
     9
  DF-KS-SCF000/VTZ,I=VTZ-PP,SN=VTZ-PP  ENERGY=-375.41469277
  C         -0.1294525832        1.4966434937        0.0346226964
  C         -1.1823760751        0.6082722444       -0.4259691424
  O         -1.0152502515       -0.5556459656       -0.6982666333
  N          0.3758507443       -3.8093735222       -0.9495048087
  N          1.1382069853       -3.0329966645       -0.8555110338
  C          1.1041659826        1.0308739068        0.1834234571
  O          2.1704657628        0.6231814551        0.3095130152
  H         -0.3003040669        2.5363688112        0.2651363951
  H         -2.1613064982        1.1026762409       -0.5093624256
 }
 
 
 basis={default=vtz
 I=vtz-pp
 Sn=vtz-pp
 
 set,jkfit,context=jkfit
 default=vqz
 I=def2-qzvpp
 Sn=def2-qzvpp
 
 }
 
 {df-ks,b3lyp,df_basis=jkfit}
 {optg;hessian,numerical=0}
 Commands  initialized (760), CPU time= 0.00 sec, 616 directives.
 Default parameters read. Elapsed time= 0.03 sec

 Checking input...
 Passed
1


                                         ***  PROGRAM SYSTEM MOLPRO  ***
                                       Copyright, TTI GmbH Stuttgart, 2015
                                    Version 2018.1 linked Sep 15 2018 11:06:14


 **********************************************************************************************************************************
 LABEL *                                                                                 
  (10 PROC) 64 bit serial version                                                        DATE: 26-Oct-19          TIME: 09:32:18  
 **********************************************************************************************************************************

 SHA1:             28b69543154ff193671d9c596f8a80b1ea1e566d
 **********************************************************************************************************************************
 SETTING GEOMTYPE       =    XYZ

Geometry recognized as XYZ


 Turning off symmetry in density fitting calculation
 To re-enable, use 'symmetry,auto'


 Variable memory set to  600000000 words,  buffer space 

 SETTING BASIS          =    VTZ,I=VTZ-PP,SN=VTZ-PP


 Recomputing integrals since basis changed


 Using spherical harmonics

 Library entry C      S cc-pVTZ              selected for orbital group  1
 Library entry C      P cc-pVTZ              selected for orbital group  1
 Library entry C      D cc-pVTZ              selected for orbital group  1
 Library entry C      F cc-pVTZ              selected for orbital group  1
 Library entry O      S cc-pVTZ              selected for orbital group  2
 Library entry O      P cc-pVTZ              selected for orbital group  2
 Library entry O      D cc-pVTZ              selected for orbital group  2
 Library entry O      F cc-pVTZ              selected for orbital group  2
 Library entry N      S cc-pVTZ              selected for orbital group  3
 Library entry N      P cc-pVTZ              selected for orbital group  3
 Library entry N      D cc-pVTZ              selected for orbital group  3
 Library entry N      F cc-pVTZ              selected for orbital group  3
 Library entry H      S cc-pVTZ              selected for orbital group  6
 Library entry H      P cc-pVTZ              selected for orbital group  6
 Library entry H      D cc-pVTZ              selected for orbital group  6


 PROGRAM * SEWARD (Integral evaluation for generally contracted gaussian basis sets)     Author: Roland Lindh, 1990

 Geometry written to block  1 of record 700


 Point group  C1  



 ATOMIC COORDINATES

 NR  ATOM    CHARGE       X              Y              Z

   1  C       6.00   -0.244629928    2.828246309    0.065427414
   2  C       6.00   -2.234366958    1.149467951   -0.804965017
   3  O       8.00   -1.918544923   -1.050018697   -1.319532699
   4  N       7.00    0.710254970   -7.198672663   -1.794304042
   5  N       7.00    2.150899475   -5.731533033   -1.616681550
   6  C       6.00    2.086571303    1.948069353    0.346620099
   7  O       8.00    4.101585854    1.177642276    0.584894831
   8  H       1.00   -0.567492441    4.793042404    0.501035172
   9  H       1.00   -4.084277353    2.083756099   -0.962555483

 Bond lengths in Bohr (Angstrom)

 1-2  2.744983280  1-6  2.507644309  1-8  2.038238950  2-3  2.280847424  2-9  2.078436327
     ( 1.452582596)     ( 1.326988222)     ( 1.078589603)     ( 1.206972479)     ( 1.099861139)

 4-5  2.063856835  6-7  2.170395441
     ( 1.092146004)     ( 1.148523806)

 Bond angles

  1-2-3  124.12017845   1-2-9  113.22176568   1-6-7  179.72629108   2-1-6  119.65346363

  2-1-8  122.85331497   3-2-9  122.65756362   6-1-8  117.49313186

 NUCLEAR CHARGE:                   50
 NUMBER OF PRIMITIVE AOS:         363
 NUMBER OF SYMMETRY AOS:          326
 NUMBER OF CONTRACTIONS:          238   (  238A   )
 NUMBER OF CORE ORBITALS:           7   (    7A   )
 NUMBER OF VALENCE ORBITALS:       30   (   30A   )


 NUCLEAR REPULSION ENERGY  228.23126080


 Basis set:  JKFIT                   
 Basis size:   844
 Attributes:
 Sphericals:   T

 **********************************************************************************************************************************


 Eigenvalues of metric

         1 0.425E-03 0.812E-03 0.108E-02 0.114E-02 0.118E-02 0.158E-02 0.186E-02 0.208E-02


 OPERATOR DM      FOR CENTER  0  COORDINATES:    0.000000    0.000000    0.000000


 **********************************************************************************************************************************
 DATASETS  * FILE   NREC   LENGTH (MB)   RECORD NAMES
              1      18       32.21       500      610      700      900      950      970     1000      129      960     1100   
                                          VAR    BASINP    GEOM    SYMINP    ZMAT    AOBASIS   BASIS     P2S    ABASIS      S 
                                         1400     1410     1200     1210     1080     1600     1650     1700   
                                           T        V       H0       H01     AOSYM     SMH    MOLCAS    OPER   

 PROGRAMS   *        TOTAL       INT
 CPU TIMES  *         0.68      0.62
 REAL TIME  *         0.71 SEC
 DISK USED  *        32.69 MB
 **********************************************************************************************************************************

 Density functional group B3LYP=B88+DIRAC+LYP+VWN5
 Functional: B88(Automatically generated (new) B88)                            Gradient terms: 1
 Functional: DIRAC(Automatically generated (new) DIRAC)                        Gradient terms: 0
 Functional: LYP(Automatically generated (new) LYP)                            Gradient terms: 1
 Functional: VWN5(Automatically generated (new) VWN5)                          Gradient terms: 0
 Use libxcgrid:  F
 Use grid at  1800.2


 Exact exchange will be calculated, factor:  0.2000

 Functional: B88                       Factor:  0.7200
 Functional: DIRAC                     Factor:  0.0800
 Functional: LYP                       Factor:  0.8100
 Functional: VWN5                      Factor:  0.1900

 Generated new metagrid on record  1800.2 with target accuracy 1.0D-06 and 39804 points in CPU time    0.7
 Computed new grid on record 1800.1 in CPU time    0.8
  194148 words reserved for DFT integration

 PROGRAM * RKS-SCF (Restricted closed shell Kohn-Sham)     Authors: W. Meyer, H.-J. Werner, P.J. Knowles, 1993

 NUMBER OF ELECTRONS:      25+   25-    SPACE SYMMETRY=1    SPIN SYMMETRY: Singlet 
 CONVERGENCE THRESHOLDS:    1.00E-06 (Density)    1.00E-06 (Energy)
 INTEGRAL THRESHOLDS:       1.00E-11 (Initial)    1.00E-11 (Final)
 MAX. NUMBER OF ITERATIONS:       60
 INTERPOLATION TYPE:            DIIS
 INTERPOLATION STEPS:              2 (START)      1 (STEP)
 LEVEL SHIFTS:                  0.00 (CLOSED)  0.00 (OPEN) 



 Use fine grid record 1800.2 for energy threshold  1.0D-06


 Orbital guess generated from atomic densities. Full valence occupancy:   37
 Using density fitting in orbital guess

 Coulomb and exchange fitting
 Thresholds for fitting:       THRAO_COUL= 1.0D-14    THRAO_EXCH= 1.0D-12    THRMO= 1.0D-11    THRPROD= 1.0D-11    THRASM= 1.0D-11
                               THR2HLF=    1.0D-11

 Molecular orbital dump at record        2100.2

 Initial occupancy:  25

 ITERATION   DDIFF            GRAD            ENERGY        2-EL.EN.            DIPOLE MOMENTS         DIIS   CPU(IT)  CPU(TOT)  ORB.
    1      0.000D+00      0.000D+00      -375.28273678    804.047429    0.32411    2.13195    0.63335    0     14.2     29.5     start
    2      0.000D+00      0.547D-02      -374.97917309    783.969998   -1.06686   -0.59612   -0.40765    1     13.3     42.8     diag
    3      0.222D-01      0.998D-02      -375.39595098    793.737748    0.18700    1.65597    0.47202    2     13.6     56.4     diag
    4      0.165D-01      0.203D-02      -375.41343550    794.740174   -0.02695    1.24719    0.31745    3     12.7     69.0     diag
    5      0.253D-02      0.551D-03      -375.41439238    795.043120   -0.09420    1.32104    0.32132    4     14.4     83.4     diag
    6      0.726D-03      0.242D-03      -375.41467843    794.806514   -0.04620    1.30413    0.32813    5     13.9     97.3     diag
    7      0.284D-03      0.556D-04      -375.41468993    794.793684   -0.04296    1.30427    0.32851    6     13.3    110.6     diag
    8      0.653D-04      0.252D-04      -375.41469216    794.810317   -0.05220    1.30822    0.32774    7     14.1    124.8     diag
    9      0.279D-04      0.979D-05      -375.41469262    794.813221   -0.04820    1.30846    0.32857    8     13.5    138.2     diag
   10      0.126D-04      0.233D-05      -375.41469264    794.812463   -0.04855    1.30814    0.32848    9     13.2    151.4     orth
   11      0.286D-05      0.882D-06      -375.41469264    794.812423   -0.04846    1.30841    0.32850    9     13.0    164.4     diag
   12      0.122D-05      0.685D-06      -375.41469264    794.812614   -0.04856    1.30834    0.32850    9     14.3    178.7     diag
   13      0.607D-06      0.826D-07      -375.41469264    794.812459   -0.04854    1.30834    0.32849    0     13.2    191.9     orth

 Final occupancy:  25

 !RKS STATE  1.1 Energy              -375.414692643908
 Nuclear energy                       228.23126080
 One-electron energy                 -962.53532268
 Two-electron energy                  397.40622945
 Density functional                   -38.51686022     B88=-46.04156788 DIRAC=-41.48040798 LYP= -1.74065138 VWN5= -3.36090045
 Virial quotient                       -1.00535552
 !RKS STATE  1.1 Dipole moment         -0.04854431     1.30834021     0.32849419
 Dipole moment /Debye                  -0.12337924     3.32525130     0.83489425

 Orbital energies:

         1.1          2.1          3.1          4.1          5.1          6.1          7.1          8.1          9.1         10.1
    -19.233801   -19.122274   -14.399163   -14.397249   -10.334642   -10.274667   -10.209075    -1.163174    -1.110536    -1.053363

        11.1         12.1         13.1         14.1         15.1         16.1         17.1         18.1         19.1         20.1
     -0.822638    -0.654110    -0.557935    -0.537258    -0.533837    -0.495956    -0.493790    -0.464665    -0.450589    -0.450082

        21.1         22.1         23.1         24.1         25.1         26.1         27.1
     -0.431148    -0.413843    -0.406493    -0.274246    -0.271276    -0.066748    -0.052592


 HOMO     25.1    -0.271276 =      -7.3818eV
 LUMO     26.1    -0.066748 =      -1.8163eV
 LUMO-HOMO         0.204527 =       5.5655eV


 **********************************************************************************************************************************
 DATASETS  * FILE   NREC   LENGTH (MB)   RECORD NAMES
              1      19       33.48       500      610      700      900      950      970     1000      129      960     1100   
                                          VAR    BASINP    GEOM    SYMINP    ZMAT    AOBASIS   BASIS     P2S    ABASIS      S 
                                         1400     1410     1200     1210     1080     1600     1650     1700     1800   
                                           T        V       H0       H01     AOSYM     SMH    MOLCAS    OPER     GRID   

              2       5        4.29       700     1000      520     1800     2100   
                                         GEOM     BASIS   MCVARS    GRID      RKS  

 PROGRAMS   *        TOTAL     DF-KS       INT
 CPU TIMES  *       193.60    192.92      0.62
 REAL TIME  *        25.34 SEC
 DISK USED  *       100.19 MB
 **********************************************************************************************************************************


 PROGRAM * OPT (Geometry optimization)     Authors: F. Eckert and H.-J. Werner


 BFGS update of hessian

 *** Long output written to logfile /home/bing/j2/p1/frag_22001_optg.log ***


 Geometry optimization using default procedure for command DF-KS-SCF

 Geometry written to block  1 of record 700

 Recomputing wavefunction at reference geometry

 Generated  21 symmetrical displacements

 Numerically approximating hessian using forward gradient differences

 Task list generated. Total number of displacements:     21

    5 tasks completed, CPU=12m 26s Elapsed=1m 40s
   10 tasks completed, CPU=25m 3s Elapsed=3m 23s
   15 tasks completed, CPU=38m 13s Elapsed=5m 12s
   20 tasks completed, CPU=52m 29s Elapsed=7m 10s

 Numerical DF-KS-SCF000 hessian completed. CPU-time:  3301.90 sec, Elapsed:   451.01 sec

 DF-KS-SCF hessian saved to record  5300.2

 Entering Rational Function Geometry Optimization

 ITER.   ENERGY(OLD)    ENERGY(NEW)      DE          GRADMAX     GRADNORM    GRADRMS     STEPMAX     STEPLEN     STEPRMS   CPU-time
   1  -375.41469264  -375.41474974    -0.00005710  0.00843899  0.01438006  0.00068476  0.29999680  0.30000000  0.10000000   3493.29
   2  -375.41474974  -375.41473248     0.00001727  0.00781618  0.01130893  0.00053852  0.29344007  0.30000000  0.10000000   3671.49
   3  -375.41473248  -375.41501119    -0.00027871  0.00953412  0.01505933  0.00071711  0.24176097  0.30000000  0.10000000   3825.45
   4  -375.41501119  -375.41502272    -0.00001154  0.00300330  0.00329898  0.00015709  0.29899955  0.30000000  0.10000000   3993.64
   5  -375.41502272  -375.41503019    -0.00000746  0.00199417  0.00248683  0.00011842  0.03528661  0.04500156  0.01500052   4138.78
   6  -375.41503019  -375.41502462     0.00000557  0.00130751  0.00165333  0.00007873  0.03877781  0.05367012  0.01789004   4267.58
   7  -375.41502462  -375.41500936     0.00001526  0.00117418  0.00125204  0.00005962  0.07208956  0.07408676  0.02469559   4405.26
   8  -375.41500936  -375.41502397    -0.00001461  0.00247842  0.00259621  0.00012363  0.22244140  0.22906484  0.07635495   4557.05
   9  -375.41502397  -375.41503666    -0.00001268  0.00215737  0.00318779  0.00015180  0.10949364  0.11408473  0.03802824   4699.05
  10  -375.41503666  -375.41502849     0.00000816  0.00099313  0.00106788  0.00005085  0.05294050  0.07083051  0.02361017   4838.96
  11  -375.41502849  -375.41504166    -0.00001317  0.00389688  0.00400535  0.00019073  0.01638036  0.02113964  0.00704655   4960.65
  12  -375.41504166  -375.41503794     0.00000373  0.00071504  0.00076667  0.00003651  0.08135621  0.08439735  0.02813245   5101.09
  13  -375.41503794  -375.41503799    -0.00000005  0.00062315  0.00083273  0.00003965  0.04003038  0.04589915  0.01529972   5226.80
  14  -375.41503799  -375.41503485     0.00000315  0.00063971  0.00084291  0.00004014  0.02195406  0.03285659  0.01095220   5346.96
  15  -375.41503485  -375.41504201    -0.00000717  0.00056065  0.00065914  0.00003139  0.04157762  0.05443184  0.01814395   5471.70
  16  -375.41504201  -375.41503232     0.00000969  0.00062335  0.00081414  0.00003877  0.08681902  0.09449366  0.03149789   5610.05
  17  -375.41503232  -375.41503009     0.00000223  0.00069527  0.00085624  0.00004077  0.03934101  0.04107222  0.01369074   5736.56
  18  -375.41503009  -375.41503907    -0.00000898  0.00065226  0.00088442  0.00004212  0.01135526  0.01456398  0.00485466   5849.93
 Freezing grid
  19  -375.41503907  -375.41503425     0.00000481  0.00010895  0.00014002  0.00000667  0.00634641  0.00733041  0.00244347   5989.95
  20  -375.41503425  -375.41503417     0.00000008  0.00003109  0.00005306  0.00000253  0.00729548  0.00826696  0.00275565   6125.18

 END OF GEOMETRY OPTIMIZATION.

 Current geometry (xyz format, in Angstrom)

    9
 DF-KS-SCF000/VTZ,I=VTZ-PP,SN=VTZ-PP  ENERGY=-375.41503417
 C         -0.1130360203        1.5209104660        0.0074334738
 C         -1.1604612795        0.5787668507       -0.3831896921
 O         -1.0188532903       -0.6135970056       -0.5392195365
 N          0.3050587768       -3.8273935437       -1.0682171105
 N          1.1270045216       -3.1291533387       -0.9015801918
 C          1.1261155954        1.1027461512        0.2279577381
 O          2.1959399799        0.7288355802        0.4168487718
 H         -0.3191295318        2.5746928306        0.1265748905
 H         -2.1426387516        1.0641920091       -0.5325268234

 **********************************************************************************************************************************

 Geometry written to block  1 of record 700


 **********************************************************************************************************************************
 DATASETS  * FILE   NREC   LENGTH (MB)   RECORD NAMES
              1      19       33.47       500      610      700      900      950      970     1000      129      960     1100   
                                          VAR    BASINP    GEOM    SYMINP    ZMAT    AOBASIS   BASIS     P2S    ABASIS      S 
                                         1400     1410     1200     1210     1080     1600     1650     1700     1800   
                                           T        V       H0       H01     AOSYM     SMH    MOLCAS    OPER     GRID   

              2       8        5.24       700     1000      520     1800     2100     5300     5500     5300(1)
                                         GEOM     BASIS   MCVARS    GRID      RKS     HESS     HINFO    HESS   

 PROGRAMS   *        TOTAL      OPTG     DF-KS       INT
 CPU TIMES  *      6318.80   6125.18    192.92      0.62
 REAL TIME  *       878.57 SEC
 DISK USED  *       100.19 MB
 **********************************************************************************************************************************
 Molecular orbitals read from record     2100.2  Type=RKS/CANONICAL (state 1.1)
 Occupation numbers read from record     2100.2  Type=RKS/RHF (state 1.1)
 Orbital energies read from record       2100.2  Type=RKS/CANONICAL (state 1.1)
 Redundancy group numbers read from rec  2100.2  Type=RKS/RHF (state 1.1)

 DF-KS/cc-pVTZ,I=VTZ-PP,SN=VTZ-PP//DF-KS/cc-pVTZ,I=VTZ-PP,SN=VTZ-PP energy=   -375.415034170958

     OPTG(DF-KS)           DF-KS
   -375.41503417   -375.41469264
 **********************************************************************************************************************************
 Molpro calculation terminated
