
 Primary working directories    : /data2/scratch/molpro.f1DDFS0zDT
 Secondary working directories  : /data2/scratch/molpro.f1DDFS0zDT
 Wavefunction directory         : /data2/scratch/wfu/
 Main file repository           : /data2/scratch/int/

 id        : avlunibas

 Nodes                    nprocs
 pc-avl46.chemie.unibas.ch    1

 Using customized tuning parameters: mindgm=1; mindgv=20; mindgc=4; mindgr=1; noblas=0; minvec=7
 default implementation of scratch files=df  


 Variables initialized (924), CPU time= 0.00 sec
 
 memory,600,M
 
                                                                                 !file,1,frag_08574_optg.int !save integrals file
                                                    !file,2,frag_08574_optg.wfu !save wavefunctions to file, as well as geom &amp; grad
 
 
 geomtype=xyz
 geometry = {
    10
  DF-KS-SCF000/VTZ,I=VTZ-PP,SN=VTZ-PP  ENERGY=-355.51071465
  C          2.1208327561       -0.6839428378        0.0440117216
  C          0.8209179644       -0.7844980511       -0.0991459852
  N         -0.3610816542       -0.8953242009       -0.2498034672
  C         -1.7120698078       -0.9162299227       -0.1275800468
  O         -2.4293243722        0.0529943949       -0.1118514298
  N         -1.2323565815        3.5892616902        0.2817784124
  N         -0.4221017768        2.8610572280        0.1262967375
  H          2.7250339760       -1.5440818885        0.2371888466
  H          2.5851777497        0.2710371823       -0.0253048234
  H         -2.0950282237       -1.9502736045       -0.0755899756
 }
 
 
 basis={default=vtz
 I=vtz-pp
 Sn=vtz-pp
 
 set,jkfit,context=jkfit
 default=vqz
 I=def2-qzvpp
 Sn=def2-qzvpp
 
 }
 
 {df-ks,b3lyp,df_basis=jkfit}
 {optg;hessian,numerical=0}
 Commands  initialized (760), CPU time= 0.01 sec, 616 directives.
 Default parameters read. Elapsed time= 0.03 sec

 Checking input...
 Passed
1


                                         ***  PROGRAM SYSTEM MOLPRO  ***
                                       Copyright, TTI GmbH Stuttgart, 2015
                                    Version 2018.1 linked Sep 15 2018 11:06:14


 **********************************************************************************************************************************
 LABEL *                                                                                 
  (10 PROC) 64 bit serial version                                                        DATE: 26-Oct-19          TIME: 09:32:18  
 **********************************************************************************************************************************

 SHA1:             28b69543154ff193671d9c596f8a80b1ea1e566d
 **********************************************************************************************************************************
 SETTING GEOMTYPE       =    XYZ

Geometry recognized as XYZ


 Turning off symmetry in density fitting calculation
 To re-enable, use 'symmetry,auto'


 Variable memory set to  600000000 words,  buffer space 

 SETTING BASIS          =    VTZ,I=VTZ-PP,SN=VTZ-PP


 Recomputing integrals since basis changed


 Using spherical harmonics

 Library entry C      S cc-pVTZ              selected for orbital group  1
 Library entry C      P cc-pVTZ              selected for orbital group  1
 Library entry C      D cc-pVTZ              selected for orbital group  1
 Library entry C      F cc-pVTZ              selected for orbital group  1
 Library entry N      S cc-pVTZ              selected for orbital group  2
 Library entry N      P cc-pVTZ              selected for orbital group  2
 Library entry N      D cc-pVTZ              selected for orbital group  2
 Library entry N      F cc-pVTZ              selected for orbital group  2
 Library entry O      S cc-pVTZ              selected for orbital group  4
 Library entry O      P cc-pVTZ              selected for orbital group  4
 Library entry O      D cc-pVTZ              selected for orbital group  4
 Library entry O      F cc-pVTZ              selected for orbital group  4
 Library entry H      S cc-pVTZ              selected for orbital group  6
 Library entry H      P cc-pVTZ              selected for orbital group  6
 Library entry H      D cc-pVTZ              selected for orbital group  6


 PROGRAM * SEWARD (Integral evaluation for generally contracted gaussian basis sets)     Author: Roland Lindh, 1990

 Geometry written to block  1 of record 700


 Point group  C1  



 ATOMIC COORDINATES

 NR  ATOM    CHARGE       X              Y              Z

   1  C       6.00    4.007793065   -1.292464648    0.083170100
   2  C       6.00    1.551310123   -1.482486462   -0.187358758
   3  N       7.00   -0.682345435   -1.691917532   -0.472060138
   4  C       6.00   -3.235343043   -1.731423621   -0.241091347
   5  O       8.00   -4.590757731    0.100144892   -0.211368569
   6  N       7.00   -2.328816427    6.782721584    0.532484027
   7  N       7.00   -0.797656755    5.406614588    0.238666244
   8  H       1.00    5.149567895   -2.917891883    0.448221960
   9  H       1.00    4.885277930    0.512186044   -0.047819186
  10  H       1.00   -3.959029566   -3.685482980   -0.142844352

 Bond lengths in Bohr (Angstrom)

 1-2  2.478629177  1-8  2.019635194  1-9  2.010945550  2-3  2.261444981  3-4  2.563728554
     ( 1.311634075)     ( 1.068744919)     ( 1.064146557)     ( 1.196705148)     ( 1.356666726)

  4- 5  2.278744312   4-10  2.086078291   6- 7  2.079531028
       ( 1.205859560)       ( 1.103905092)       ( 1.100440429)

 Bond angles

  1-2-3  178.66112393   2-1-8  121.21921134   2-1-9  119.61342158   2-3-4  166.82101946

  3- 4- 5  125.52847361   3- 4-10  111.35452894   5- 4-10  123.08858360   8- 1- 9  119.16565390

 NUCLEAR CHARGE:                   50
 NUMBER OF PRIMITIVE AOS:         380
 NUMBER OF SYMMETRY AOS:          342
 NUMBER OF CONTRACTIONS:          252   (  252A   )
 NUMBER OF CORE ORBITALS:           7   (    7A   )
 NUMBER OF VALENCE ORBITALS:       31   (   31A   )


 NUCLEAR REPULSION ENERGY  228.15566603


 Basis set:  JKFIT                   
 Basis size:   895
 Attributes:
 Sphericals:   T

 **********************************************************************************************************************************


 Eigenvalues of metric

         1 0.334E-03 0.669E-03 0.110E-02 0.116E-02 0.141E-02 0.144E-02 0.148E-02 0.182E-02


 OPERATOR DM      FOR CENTER  0  COORDINATES:    0.000000    0.000000    0.000000


 **********************************************************************************************************************************
 DATASETS  * FILE   NREC   LENGTH (MB)   RECORD NAMES
              1      18       32.48       500      610      700      900      950      970     1000      129      960     1100   
                                          VAR    BASINP    GEOM    SYMINP    ZMAT    AOBASIS   BASIS     P2S    ABASIS      S 
                                         1400     1410     1200     1210     1080     1600     1650     1700   
                                           T        V       H0       H01     AOSYM     SMH    MOLCAS    OPER   

 PROGRAMS   *        TOTAL       INT
 CPU TIMES  *         0.75      0.67
 REAL TIME  *         0.71 SEC
 DISK USED  *        32.98 MB
 **********************************************************************************************************************************

 Density functional group B3LYP=B88+DIRAC+LYP+VWN5
 Functional: B88(Automatically generated (new) B88)                            Gradient terms: 1
 Functional: DIRAC(Automatically generated (new) DIRAC)                        Gradient terms: 0
 Functional: LYP(Automatically generated (new) LYP)                            Gradient terms: 1
 Functional: VWN5(Automatically generated (new) VWN5)                          Gradient terms: 0
 Use libxcgrid:  F
 Use grid at  1800.2


 Exact exchange will be calculated, factor:  0.2000

 Functional: B88                       Factor:  0.7200
 Functional: DIRAC                     Factor:  0.0800
 Functional: LYP                       Factor:  0.8100
 Functional: VWN5                      Factor:  0.1900

 Generated new metagrid on record  1800.2 with target accuracy 1.0D-06 and 42174 points in CPU time    0.8
 Computed new grid on record 1800.1 in CPU time    0.8
  205282 words reserved for DFT integration

 PROGRAM * RKS-SCF (Restricted closed shell Kohn-Sham)     Authors: W. Meyer, H.-J. Werner, P.J. Knowles, 1993

 NUMBER OF ELECTRONS:      25+   25-    SPACE SYMMETRY=1    SPIN SYMMETRY: Singlet 
 CONVERGENCE THRESHOLDS:    1.00E-06 (Density)    1.00E-06 (Energy)
 INTEGRAL THRESHOLDS:       1.00E-11 (Initial)    1.00E-11 (Final)
 MAX. NUMBER OF ITERATIONS:       60
 INTERPOLATION TYPE:            DIIS
 INTERPOLATION STEPS:              2 (START)      1 (STEP)
 LEVEL SHIFTS:                  0.00 (CLOSED)  0.00 (OPEN) 



 Use fine grid record 1800.2 for energy threshold  1.0D-06


 Orbital guess generated from atomic densities. Full valence occupancy:   38
 Using density fitting in orbital guess

 Coulomb and exchange fitting
 Thresholds for fitting:       THRAO_COUL= 1.0D-14    THRAO_EXCH= 1.0D-12    THRMO= 1.0D-11    THRPROD= 1.0D-11    THRASM= 1.0D-11
                               THR2HLF=    1.0D-11

 Molecular orbital dump at record        2100.2

 Initial occupancy:  25

 ITERATION   DDIFF            GRAD            ENERGY        2-EL.EN.            DIPOLE MOMENTS         DIIS   CPU(IT)  CPU(TOT)  ORB.
    1      0.000D+00      0.000D+00      -355.36413675    783.565316    0.97045   -1.42619    0.04428    0     16.4     31.5     start
    2      0.000D+00      0.557D-02      -355.06586089    767.149266    0.75386    0.81699    0.21437    1     15.4     46.9     diag
    3      0.145D-01      0.987D-02      -355.48297332    772.800222    1.24892   -1.09772    0.01743    2     15.9     62.8     diag
    4      0.946D-02      0.240D-02      -355.50961671    774.895451    0.84168   -0.77412    0.09107    3     15.3     78.1     diag
    5      0.253D-02      0.484D-03      -355.51050743    775.136588    1.01945   -0.79231    0.08044    4     17.8     95.9     diag
    6      0.645D-03      0.195D-03      -355.51069227    774.881035    0.95263   -0.77926    0.08207    5     15.4    111.3     diag
    7      0.240D-03      0.701D-04      -355.51071144    774.878103    0.96579   -0.79211    0.08059    6     15.1    126.4     diag
    8      0.704D-04      0.264D-04      -355.51071410    774.894640    0.96297   -0.79013    0.08140    7     16.1    142.5     diag
    9      0.253D-04      0.880D-05      -355.51071448    774.893110    0.96397   -0.79084    0.08103    8     16.1    158.6     diag
   10      0.890D-05      0.158D-05      -355.51071449    774.894067    0.96415   -0.79076    0.08109    9     16.3    175.0     orth
   11      0.177D-05      0.380D-06      -355.51071449    774.893549    0.96392   -0.79080    0.08106    9     15.7    190.7     diag
   12      0.579D-06      0.289D-06      -355.51071448    774.894295    0.96433   -0.79080    0.08110    0     15.2    205.9     orth

 Final occupancy:  25

 !RKS STATE  1.1 Energy              -355.510714484721
 Nuclear energy                       228.15566603
 One-electron energy                 -933.64039342
 Two-electron energy                  387.44714730
 Density functional                   -37.47313439     B88=-44.75590590 DIRAC=-40.30022496 LYP= -1.71993979 VWN5= -3.32480482
 Virial quotient                       -1.00565986
 !RKS STATE  1.1 Dipole moment          0.96433496    -0.79080303     0.08109958
 Dipole moment /Debye                   2.45093445    -2.00988916     0.20612107

 Orbital energies:

         1.1          2.1          3.1          4.1          5.1          6.1          7.1          8.1          9.1         10.1
    -19.125776   -14.408887   -14.407142   -14.378336   -10.307838   -10.280260   -10.188462    -1.112925    -1.066988    -0.976759

        11.1         12.1         13.1         14.1         15.1         16.1         17.1         18.1         19.1         20.1
     -0.791155    -0.724527    -0.556786    -0.543629    -0.515350    -0.482978    -0.462736    -0.458775    -0.454899    -0.453273

        21.1         22.1         23.1         24.1         25.1         26.1         27.1
     -0.421405    -0.376237    -0.364588    -0.290114    -0.246324    -0.045613    -0.033284


 HOMO     25.1    -0.246324 =      -6.7028eV
 LUMO     26.1    -0.045613 =      -1.2412eV
 LUMO-HOMO         0.200711 =       5.4616eV


 **********************************************************************************************************************************
 DATASETS  * FILE   NREC   LENGTH (MB)   RECORD NAMES
              1      19       33.83       500      610      700      900      950      970     1000      129      960     1100   
                                          VAR    BASINP    GEOM    SYMINP    ZMAT    AOBASIS   BASIS     P2S    ABASIS      S 
                                         1400     1410     1200     1210     1080     1600     1650     1700     1800   
                                           T        V       H0       H01     AOSYM     SMH    MOLCAS    OPER     GRID   

              2       5        4.48       700     1000      520     1800     2100   
                                         GEOM     BASIS   MCVARS    GRID      RKS  

 PROGRAMS   *        TOTAL     DF-KS       INT
 CPU TIMES  *       207.72    206.96      0.67
 REAL TIME  *        27.38 SEC
 DISK USED  *       110.19 MB
 **********************************************************************************************************************************


 PROGRAM * OPT (Geometry optimization)     Authors: F. Eckert and H.-J. Werner


 BFGS update of hessian

 *** Long output written to logfile /home/bing/j2/p1/frag_08574_optg.log ***


 Geometry optimization using default procedure for command DF-KS-SCF

 Geometry written to block  1 of record 700

 Recomputing wavefunction at reference geometry

 Generated  24 symmetrical displacements

 Numerically approximating hessian using forward gradient differences

 Task list generated. Total number of displacements:     24

    5 tasks completed, CPU=14m 19s Elapsed=1m 56s
   10 tasks completed, CPU=29m 24s Elapsed=4m 0s
   15 tasks completed, CPU=44m 0s Elapsed=6m 2s
   20 tasks completed, CPU=58m 47s Elapsed=8m 4s

 Numerical DF-KS-SCF000 hessian completed. CPU-time:  4284.24 sec, Elapsed:   588.34 sec

 DF-KS-SCF hessian saved to record  5300.2

 Entering Rational Function Geometry Optimization

 ITER.   ENERGY(OLD)    ENERGY(NEW)      DE          GRADMAX     GRADNORM    GRADRMS     STEPMAX     STEPLEN     STEPRMS   CPU-time
   1  -355.51071448  -355.51223126    -0.00151677  0.03775694  0.04416909  0.00184038  0.29837004  0.30000000  0.09486833   4542.63
   2  -355.51223126  -355.50552400     0.00670726  0.03227009  0.03826136  0.00159422  0.13133247  0.30000000  0.09486833   4728.17
   3  -355.50552400  -355.51302173    -0.00749774  0.06399637  0.09631916  0.00401330  0.17908171  0.30000000  0.09486833   4917.32
   4  -355.51302173  -355.51368202    -0.00066028  0.01029278  0.01581386  0.00065891  0.25342405  0.30000000  0.09486833   5104.05
   5  -355.51368202  -355.51456086    -0.00087884  0.00998396  0.01937429  0.00080726  0.18341191  0.30000000  0.09486833   5272.63
   6  -355.51456086  -355.51519577    -0.00063490  0.00670311  0.01378392  0.00057433  0.22350676  0.30000000  0.09486833   5442.44
   7  -355.51519577  -355.51504980     0.00014597  0.00765042  0.01223588  0.00050983  0.22899857  0.30000000  0.09486833   5606.16
   8  -355.51504980  -355.51536672    -0.00031692  0.02220471  0.02730161  0.00113757  0.19574526  0.30000000  0.09486833   5784.91
   9  -355.51536672  -355.51548195    -0.00011524  0.00759147  0.01022791  0.00042616  0.22971079  0.30000000  0.09486833   5954.25
  10  -355.51548195  -355.51551334    -0.00003139  0.00962875  0.01160543  0.00048356  0.27681461  0.30000000  0.09486833   6120.69
  11  -355.51551334  -355.51558805    -0.00007472  0.00835680  0.01327595  0.00055316  0.29323125  0.30000000  0.09486833   6267.11
  12  -355.51558805  -355.51406120     0.00152686  0.00466162  0.00773727  0.00032239  0.21270888  0.30000000  0.09486833   6443.82
  13  -355.51406120  -355.45059168     0.06346951  0.03596133  0.05124189  0.00213508  0.18620564  0.30000000  0.09486833   6612.99
  14  -355.45059168  -355.51467597    -0.06408428  0.69370813  0.72724527  0.03030189  0.14615567  0.24378741  0.07709235   6786.91
  15  -355.51467597  -355.51549353    -0.00081756  0.02615194  0.03999816  0.00166659  0.09709202  0.21127609  0.06681136   6957.02
  16  -355.51549353  -355.51561246    -0.00011893  0.01435451  0.01777752  0.00074073  0.06410765  0.09316415  0.02946109   7102.51
  17  -355.51561246  -355.51561006     0.00000240  0.00267060  0.00376545  0.00015689  0.05869094  0.07427606  0.02348815   7246.32
  18  -355.51561006  -355.51560694     0.00000312  0.00236369  0.00263071  0.00010961  0.02716384  0.04614310  0.01459173   7379.46
  19  -355.51560694  -355.51561116    -0.00000422  0.00152073  0.00234623  0.00009776  0.04825932  0.08518441  0.02693767   7521.59
  20  -355.51561116  -355.51562457    -0.00001341  0.00191450  0.00250253  0.00010427  0.02451219  0.04345534  0.01374178   7654.41
  21  -355.51562457  -355.51562982    -0.00000525  0.00111523  0.00125901  0.00005246  0.03580869  0.04930505  0.01559163   7788.92
  22  -355.51562982  -355.51563645    -0.00000663  0.00034483  0.00052240  0.00002177  0.02440247  0.02535525  0.00801803   7917.67
  23  -355.51563645  -355.51563315     0.00000330  0.00054063  0.00078624  0.00003276  0.10422189  0.10846895  0.03430090   8063.74
  24  -355.51563315  -355.51563703    -0.00000388  0.00068649  0.00101291  0.00004220  0.04184726  0.04858575  0.01536416   8195.47
  25  -355.51563703  -355.51564561    -0.00000858  0.00046624  0.00078217  0.00003259  0.03529703  0.04656051  0.01472372   8331.71
  26  -355.51564561  -355.51567042    -0.00002481  0.00014028  0.00024871  0.00001036  0.04587070  0.05055894  0.01598814   8472.68
  27  -355.51567042  -355.51568329    -0.00001287  0.00028938  0.00049930  0.00002080  0.20685953  0.22009559  0.06960034   8622.00
  28  -355.51568329  -355.51567581     0.00000748  0.00211331  0.00252686  0.00010529  0.13083657  0.14039294  0.04439614   8769.82
  29  -355.51567581  -355.51565542     0.00002039  0.00036233  0.00061166  0.00002549  0.01888557  0.02024819  0.00640304   8891.35
  30  -355.51565542  -355.51568099    -0.00002557  0.00040713  0.00056436  0.00002352  0.01671294  0.02521851  0.00797479   9024.51
  31  -355.51568099  -355.51568180    -0.00000080  0.00084622  0.00118149  0.00004923  0.01351197  0.01596376  0.00504818   9146.73
  32  -355.51568180  -355.51568042     0.00000137  0.00072049  0.00107876  0.00004495  0.03222712  0.04160299  0.01315602   9282.76
  33  -355.51568042  -355.51571886    -0.00003844  0.00098610  0.00110856  0.00004619  0.06596875  0.08550387  0.02703870   9434.57
  34  -355.51571886  -355.51570275     0.00001611  0.00079236  0.00101035  0.00004210  0.23693552  0.30000000  0.09486833   9597.93
  35  -355.51570275  -355.51571578    -0.00001302  0.00255843  0.00393584  0.00016399  0.17972509  0.22874673  0.07233607   9759.86
  36  -355.51571578  -355.51571785    -0.00000207  0.00022942  0.00039917  0.00001663  0.01015705  0.01609839  0.00509076   9880.08
  37  -355.51571785  -355.51571594     0.00000191  0.00020753  0.00035278  0.00001470  0.02143518  0.03305246  0.01045211  10012.03
 Freezing grid
  38  -355.51571594  -355.51571647    -0.00000053  0.00017303  0.00027628  0.00001151  0.00681098  0.00957454  0.00302774  10160.69

 END OF GEOMETRY OPTIMIZATION.

 Current geometry (xyz format, in Angstrom)

   10
 DF-KS-SCF000/VTZ,I=VTZ-PP,SN=VTZ-PP  ENERGY=-355.51571647
 C          1.9245133172       -0.5276263791        0.0906435302
 C          0.6997538725       -0.7451131006       -0.2998719155
 N         -0.4132436545       -0.9604035835       -0.7329060004
 C         -1.6667992526       -1.0115623910       -0.1029620429
 O         -2.2967084921       -0.0457052788        0.2224045536
 N         -0.9600368333        3.4363386516        0.2044492083
 N         -0.1056606761        2.7621859436        0.1238622625
 H          2.5747720632       -1.3513890719        0.3447753405
 H          2.2868587651        0.4862068758        0.1775774292
 H         -2.0434490795       -2.0429316762       -0.0279723754

 **********************************************************************************************************************************

 Geometry written to block  1 of record 700


 **********************************************************************************************************************************
 DATASETS  * FILE   NREC   LENGTH (MB)   RECORD NAMES
              1      19       33.83       500      610      700      900      950      970     1000      129      960     1100   
                                          VAR    BASINP    GEOM    SYMINP    ZMAT    AOBASIS   BASIS     P2S    ABASIS      S 
                                         1400     1410     1200     1210     1080     1600     1650     1700     1800   
                                           T        V       H0       H01     AOSYM     SMH    MOLCAS    OPER     GRID   

              2       8        5.54       700     1000      520     1800     2100     5300     5500     5300(1)
                                         GEOM     BASIS   MCVARS    GRID      RKS     HESS     HINFO    HESS   

 PROGRAMS   *        TOTAL      OPTG     DF-KS       INT
 CPU TIMES  *     10368.41  10160.69    206.96      0.67
 REAL TIME  *      1450.12 SEC
 DISK USED  *       110.19 MB
 **********************************************************************************************************************************
 Molecular orbitals read from record     2100.2  Type=RKS/CANONICAL (state 1.1)
 Occupation numbers read from record     2100.2  Type=RKS/RHF (state 1.1)
 Orbital energies read from record       2100.2  Type=RKS/CANONICAL (state 1.1)
 Redundancy group numbers read from rec  2100.2  Type=RKS/RHF (state 1.1)

 DF-KS/cc-pVTZ,I=VTZ-PP,SN=VTZ-PP//DF-KS/cc-pVTZ,I=VTZ-PP,SN=VTZ-PP energy=   -355.515716474399

     OPTG(DF-KS)           DF-KS
   -355.51571647   -355.51071448
 **********************************************************************************************************************************
 Molpro calculation terminated
