
 Primary working directories    : /data2/scratch/molpro.lLKSt3IsCL
 Secondary working directories  : /data2/scratch/molpro.lLKSt3IsCL
 Wavefunction directory         : /data2/scratch/wfu/
 Main file repository           : /data2/scratch/int/

 id        : avlunibas

 Nodes                    nprocs
 pc-avl46.chemie.unibas.ch    1

 Using customized tuning parameters: mindgm=1; mindgv=20; mindgc=4; mindgr=1; noblas=0; minvec=7
 default implementation of scratch files=df  


 Variables initialized (924), CPU time= 0.00 sec
 
 memory,600,M
 
                                                                                 !file,1,frag_19098_optg.int !save integrals file
                                                    !file,2,frag_19098_optg.wfu !save wavefunctions to file, as well as geom &amp; grad
 
 
 geomtype=xyz
 geometry = {
    12
  DF-KS-SCF000/VTZ,I=VTZ-PP,SN=VTZ-PP  ENERGY=-356.72719938
  C         -1.7988536455       -0.3755861631       -0.2026208274
  N         -0.4043605874       -0.1416094382       -0.5050465082
  C          0.4723272782       -0.8822948982        0.0291213822
  C          1.9414308797       -0.7184892799       -0.2602636721
  O          2.4090628407        0.1771278142       -0.9137145192
  N          1.0666333021        3.3293285265        0.5446000981
  N          0.0435360974        3.0413172269        0.8011440054
  H         -2.3541127113       -0.6162304924       -1.1154778155
  H         -2.2393212971        0.5537504900        0.1763223871
  H         -1.9765976216       -1.1784863089        0.5272375060
  H          0.2367237524       -1.6956267628        0.7326962529
  H          2.6035317125       -1.4932007142        0.1860017106
 }
 
 
 basis={default=vtz
 I=vtz-pp
 Sn=vtz-pp
 
 set,jkfit,context=jkfit
 default=vqz
 I=def2-qzvpp
 Sn=def2-qzvpp
 
 }
 
 {df-ks,b3lyp,df_basis=jkfit}
 {optg;hessian,numerical=0}
 Commands  initialized (760), CPU time= 0.01 sec, 616 directives.
 Default parameters read. Elapsed time= 0.03 sec

 Checking input...
 Passed
1


                                         ***  PROGRAM SYSTEM MOLPRO  ***
                                       Copyright, TTI GmbH Stuttgart, 2015
                                    Version 2018.1 linked Sep 15 2018 11:06:14


 **********************************************************************************************************************************
 LABEL *                                                                                 
  (10 PROC) 64 bit serial version                                                        DATE: 26-Oct-19          TIME: 09:32:18  
 **********************************************************************************************************************************

 SHA1:             28b69543154ff193671d9c596f8a80b1ea1e566d
 **********************************************************************************************************************************
 SETTING GEOMTYPE       =    XYZ

Geometry recognized as XYZ


 Turning off symmetry in density fitting calculation
 To re-enable, use 'symmetry,auto'


 Variable memory set to  600000000 words,  buffer space 

 SETTING BASIS          =    VTZ,I=VTZ-PP,SN=VTZ-PP


 Recomputing integrals since basis changed


 Using spherical harmonics

 Library entry C      S cc-pVTZ              selected for orbital group  1
 Library entry C      P cc-pVTZ              selected for orbital group  1
 Library entry C      D cc-pVTZ              selected for orbital group  1
 Library entry C      F cc-pVTZ              selected for orbital group  1
 Library entry N      S cc-pVTZ              selected for orbital group  2
 Library entry N      P cc-pVTZ              selected for orbital group  2
 Library entry N      D cc-pVTZ              selected for orbital group  2
 Library entry N      F cc-pVTZ              selected for orbital group  2
 Library entry O      S cc-pVTZ              selected for orbital group  4
 Library entry O      P cc-pVTZ              selected for orbital group  4
 Library entry O      D cc-pVTZ              selected for orbital group  4
 Library entry O      F cc-pVTZ              selected for orbital group  4
 Library entry H      S cc-pVTZ              selected for orbital group  6
 Library entry H      P cc-pVTZ              selected for orbital group  6
 Library entry H      D cc-pVTZ              selected for orbital group  6


 PROGRAM * SEWARD (Integral evaluation for generally contracted gaussian basis sets)     Author: Roland Lindh, 1990

 Geometry written to block  1 of record 700


 Point group  C1  



 ATOMIC COORDINATES

 NR  ATOM    CHARGE       X              Y              Z

   1  C       6.00   -3.399340728   -0.709754984   -0.382897871
   2  N       7.00   -0.764130766   -0.267603055   -0.954399581
   3  C       6.00    0.892569197   -1.667295719    0.055031437
   4  C       6.00    3.668772652   -1.357747962   -0.491827060
   5  O       8.00    4.552468986    0.334723058   -1.726670197
   6  N       7.00    2.015644816    6.291519094    1.029145033
   7  N       7.00    0.082271301    5.747256617    1.513942757
   8  H       1.00   -4.448628291   -1.164506860   -2.107947569
   9  H       1.00   -4.231703956    1.046436767    0.333201021
  10  H       1.00   -3.735228163   -2.227016365    0.996334489
  11  H       1.00    0.447343059   -3.204270191    1.384595250
  12  H       1.00    4.919961893   -2.821740399    0.351492292

 Bond lengths in Bohr (Angstrom)

  1- 2  2.732479475   1- 8  2.069685995   1- 9  2.071191840   1-10  2.077783523   2- 3  2.392226013
       ( 1.445965867)       ( 1.095230663)       ( 1.096027521)       ( 1.099515690)       ( 1.265911490)

  3- 4  2.846432795   3-11  2.080446293   4- 5  2.273810664   4-12  2.102364359   6- 7  2.066200287
       ( 1.506267367)       ( 1.100924767)       ( 1.203248785)       ( 1.112523308)       ( 1.093386105)

 Bond angles

  1- 2- 3  119.00926781   2- 1- 8  110.49718470   2- 1- 9  108.82503555   2- 1-10  114.38700066

  2- 3- 4  122.05621202   2- 3-11  123.62233274   3- 4- 5  124.35600844   3- 4-12  115.31898378

  4- 3-11  114.32083082   5- 4-12  120.32259599   8- 1- 9  105.70780047   8- 1-10  108.11127119

  9- 1-10  108.94757180

 NUCLEAR CHARGE:                   52
 NUMBER OF PRIMITIVE AOS:         414
 NUMBER OF SYMMETRY AOS:          374
 NUMBER OF CONTRACTIONS:          280   (  280A   )
 NUMBER OF CORE ORBITALS:           7   (    7A   )
 NUMBER OF VALENCE ORBITALS:       33   (   33A   )


 NUCLEAR REPULSION ENERGY  248.97566053


 Basis set:  JKFIT                   
 Basis size:   997
 Attributes:
 Sphericals:   T

 **********************************************************************************************************************************


 Eigenvalues of metric

         1 0.609E-03 0.104E-02 0.115E-02 0.124E-02 0.142E-02 0.167E-02 0.177E-02 0.182E-02


 OPERATOR DM      FOR CENTER  0  COORDINATES:    0.000000    0.000000    0.000000


 **********************************************************************************************************************************
 DATASETS  * FILE   NREC   LENGTH (MB)   RECORD NAMES
              1      18       33.06       500      610      700      900      950      970     1000      129      960     1100   
                                          VAR    BASINP    GEOM    SYMINP    ZMAT    AOBASIS   BASIS     P2S    ABASIS      S 
                                         1400     1410     1200     1210     1080     1600     1650     1700   
                                           T        V       H0       H01     AOSYM     SMH    MOLCAS    OPER   

 PROGRAMS   *        TOTAL       INT
 CPU TIMES  *         0.76      0.68
 REAL TIME  *         0.73 SEC
 DISK USED  *        33.60 MB
 **********************************************************************************************************************************

 Density functional group B3LYP=B88+DIRAC+LYP+VWN5
 Functional: B88(Automatically generated (new) B88)                            Gradient terms: 1
 Functional: DIRAC(Automatically generated (new) DIRAC)                        Gradient terms: 0
 Functional: LYP(Automatically generated (new) LYP)                            Gradient terms: 1
 Functional: VWN5(Automatically generated (new) VWN5)                          Gradient terms: 0
 Use libxcgrid:  F
 Use grid at  1800.2


 Exact exchange will be calculated, factor:  0.2000

 Functional: B88                       Factor:  0.7200
 Functional: DIRAC                     Factor:  0.0800
 Functional: LYP                       Factor:  0.8100
 Functional: VWN5                      Factor:  0.1900

 Generated new metagrid on record  1800.2 with target accuracy 1.0D-06 and 47970 points in CPU time    1.0
 Computed new grid on record 1800.1 in CPU time    1.1
  227550 words reserved for DFT integration

 PROGRAM * RKS-SCF (Restricted closed shell Kohn-Sham)     Authors: W. Meyer, H.-J. Werner, P.J. Knowles, 1993

 NUMBER OF ELECTRONS:      26+   26-    SPACE SYMMETRY=1    SPIN SYMMETRY: Singlet 
 CONVERGENCE THRESHOLDS:    1.00E-06 (Density)    1.00E-06 (Energy)
 INTEGRAL THRESHOLDS:       1.00E-11 (Initial)    1.00E-11 (Final)
 MAX. NUMBER OF ITERATIONS:       60
 INTERPOLATION TYPE:            DIIS
 INTERPOLATION STEPS:              2 (START)      1 (STEP)
 LEVEL SHIFTS:                  0.00 (CLOSED)  0.00 (OPEN) 



 Use fine grid record 1800.2 for energy threshold  1.0D-06


 Orbital guess generated from atomic densities. Full valence occupancy:   40
 Using density fitting in orbital guess

 Coulomb and exchange fitting
 Thresholds for fitting:       THRAO_COUL= 1.0D-14    THRAO_EXCH= 1.0D-12    THRMO= 1.0D-11    THRPROD= 1.0D-11    THRASM= 1.0D-11
                               THR2HLF=    1.0D-11

 Molecular orbital dump at record        2100.2

 Initial occupancy:  26

 ITERATION   DDIFF            GRAD            ENERGY        2-EL.EN.            DIPOLE MOMENTS         DIIS   CPU(IT)  CPU(TOT)  ORB.
    1      0.000D+00      0.000D+00      -356.61104450    829.229822   -1.10088   -1.80630    1.42343    0     21.1     44.0     start
    2      0.000D+00      0.444D-02      -356.39497340    805.815730   -0.37297    0.92071   -0.72790    1     20.9     64.8     diag
    3      0.144D-01      0.789D-02      -356.71032019    817.387965   -0.84313   -1.23798    0.93643    2     19.8     84.6     diag
    4      0.955D-02      0.173D-02      -356.72673558    819.058640   -0.78890   -0.96134    0.74073    3     23.7    108.3     diag
    5      0.186D-02      0.272D-03      -356.72707563    818.693366   -0.84775   -0.96141    0.73877    4     19.0    127.3     diag
    6      0.332D-03      0.130D-03      -356.72714109    818.727990   -0.78879   -0.96737    0.74093    5     19.8    147.1     diag
    7      0.153D-03      0.776D-04      -356.72717067    818.723144   -0.80982   -0.96925    0.74366    6     19.8    166.9     diag
    8      0.648D-04      0.127D-04      -356.72717137    818.729098   -0.81015   -0.96908    0.74349    7     19.2    186.1     diag
    9      0.161D-04      0.613D-05      -356.72717155    818.732979   -0.81005   -0.97021    0.74442    8     19.5    205.5     diag
   10      0.638D-05      0.209D-05      -356.72717157    818.732308   -0.81015   -0.97006    0.74425    9     19.2    224.7     orth
   11      0.208D-05      0.279D-06      -356.72717157    818.732283   -0.81016   -0.97007    0.74426    9     17.7    242.4     diag
   12      0.415D-06      0.670D-07      -356.72717157    818.732302   -0.81014   -0.97007    0.74427    0     18.1    260.6     orth

 Final occupancy:  26

 !RKS STATE  1.1 Energy              -356.727171573369
 Nuclear energy                       248.97566053
 One-electron energy                 -977.00590969
 Two-electron energy                  409.36615078
 Density functional                   -38.06307319     B88=-45.42659922 DIRAC=-40.90047570 LYP= -1.76934149 VWN5= -3.42482678
 Virial quotient                       -1.00588444
 !RKS STATE  1.1 Dipole moment         -0.81014456    -0.97007430     0.74427082
 Dipole moment /Debye                  -2.05904722    -2.46552143     1.89162382

 Orbital energies:

         1.1          2.1          3.1          4.1          5.1          6.1          7.1          8.1          9.1         10.1
    -19.137668   -14.405619   -14.403759   -14.344240   -10.271699   -10.232517   -10.209659    -1.115921    -1.060775    -0.943148

        11.1         12.1         13.1         14.1         15.1         16.1         17.1         18.1         19.1         20.1
     -0.744696    -0.663496    -0.549278    -0.540256    -0.518184    -0.478449    -0.457106    -0.455855    -0.451342    -0.445371

        21.1         22.1         23.1         24.1         25.1         26.1         27.1         28.1
     -0.419780    -0.410200    -0.409272    -0.320813    -0.285284    -0.264491    -0.090754    -0.012342


 HOMO     26.1    -0.264491 =      -7.1972eV
 LUMO     27.1    -0.090754 =      -2.4695eV
 LUMO-HOMO         0.173738 =       4.7276eV


 **********************************************************************************************************************************
 DATASETS  * FILE   NREC   LENGTH (MB)   RECORD NAMES
              1      19       34.60       500      610      700      900      950      970     1000      129      960     1100   
                                          VAR    BASINP    GEOM    SYMINP    ZMAT    AOBASIS   BASIS     P2S    ABASIS      S 
                                         1400     1410     1200     1210     1080     1600     1650     1700     1800   
                                           T        V       H0       H01     AOSYM     SMH    MOLCAS    OPER     GRID   

              2       5        4.88       700     1000      520     1800     2100   
                                         GEOM     BASIS   MCVARS    GRID      RKS  

 PROGRAMS   *        TOTAL     DF-KS       INT
 CPU TIMES  *       262.70    261.94      0.68
 REAL TIME  *        39.16 SEC
 DISK USED  *       134.09 MB
 **********************************************************************************************************************************


 PROGRAM * OPT (Geometry optimization)     Authors: F. Eckert and H.-J. Werner


 BFGS update of hessian

 *** Long output written to logfile /home/bing/j2/p1/frag_19098_optg.log ***


 Geometry optimization using default procedure for command DF-KS-SCF

 Geometry written to block  1 of record 700

 Recomputing wavefunction at reference geometry

 Generated  30 symmetrical displacements

 Numerically approximating hessian using forward gradient differences

 Task list generated. Total number of displacements:     30

    5 tasks completed, CPU=17m 52s Elapsed=2m 29s
   10 tasks completed, CPU=35m 48s Elapsed=4m 57s
   15 tasks completed, CPU=54m 26s Elapsed=7m 33s
   20 tasks completed, CPU=1h 13m 2s Elapsed=10m 8s
   25 tasks completed, CPU=1h 31m 25s Elapsed=12m 39s
   30 tasks completed, CPU=1h 49m 21s Elapsed=15m 5s

 Numerical DF-KS-SCF000 hessian completed. CPU-time:  6561.13 sec, Elapsed:   905.19 sec

 DF-KS-SCF hessian saved to record  5300.2

 Entering Rational Function Geometry Optimization

 ITER.   ENERGY(OLD)    ENERGY(NEW)      DE          GRADMAX     GRADNORM    GRADRMS     STEPMAX     STEPLEN     STEPRMS   CPU-time
   1  -356.72717157  -356.72763589    -0.00046431  0.00831111  0.01456140  0.00048538  0.12667740  0.19699409  0.05686730   6813.21
   2  -356.72763589  -356.72763966    -0.00000378  0.00083786  0.00121541  0.00004051  0.28167718  0.30000000  0.08660254   7026.63
   3  -356.72763966  -356.72768262    -0.00004296  0.00476149  0.00654557  0.00021819  0.08601280  0.11931224  0.03444248   7238.56
   4  -356.72768262  -356.72767880     0.00000382  0.00481287  0.00550144  0.00018338  0.11068052  0.13377783  0.03861833   7451.55
   5  -356.72767880  -356.72772914    -0.00005033  0.00083620  0.00168103  0.00005603  0.24413406  0.30000000  0.08660254   7664.19
   6  -356.72772914  -356.72773030    -0.00000116  0.00447743  0.00590224  0.00019674  0.06996535  0.11474878  0.03312512   7860.55
   7  -356.72773030  -356.72774186    -0.00001156  0.00274280  0.00443196  0.00014773  0.03966807  0.06457074  0.01863997   8057.43
   8  -356.72774186  -356.72776771    -0.00002585  0.00399676  0.00422002  0.00014067  0.14611004  0.17513103  0.05055597   8249.47
   9  -356.72776771  -356.72773671     0.00003099  0.00822620  0.00838151  0.00027938  0.24178609  0.30000000  0.08660254   8469.04
  10  -356.72773671  -356.72777726    -0.00004055  0.00907320  0.01208351  0.00040278  0.16574757  0.18329457  0.05291259   8682.48
  11  -356.72777726  -356.72778802    -0.00001075  0.00530013  0.00556637  0.00018555  0.03224729  0.05677648  0.01638996   8877.48
  12  -356.72778802  -356.72780668    -0.00001866  0.00634445  0.00650386  0.00021680  0.09528485  0.11938640  0.03446388   9071.67
  13  -356.72780668  -356.72772467     0.00008201  0.00110134  0.00176696  0.00005890  0.22143178  0.27936265  0.08064505   9284.19
  14  -356.72772467  -356.72781940    -0.00009473  0.01881526  0.02210176  0.00073673  0.10746201  0.16089665  0.04644686   9492.39
  15  -356.72781940  -356.72781119     0.00000821  0.00177221  0.00248681  0.00008289  0.07805738  0.12519945  0.03614197   9688.00
  16  -356.72781119  -356.72783666    -0.00002547  0.00568009  0.00743601  0.00024787  0.07023828  0.08432313  0.02434199   9858.77
  17  -356.72783666  -356.72784709    -0.00001043  0.00128857  0.00161995  0.00005400  0.10060102  0.12995851  0.03751579  10054.43
  18  -356.72784709  -356.72785943    -0.00001234  0.00197943  0.00280925  0.00009364  0.02242737  0.03156088  0.00911084  10237.90
  19  -356.72785943  -356.72787547    -0.00001604  0.00147336  0.00225936  0.00007531  0.07663346  0.11545119  0.03332789  10422.79
  20  -356.72787547  -356.72786486     0.00001061  0.00337314  0.00401587  0.00013386  0.09975944  0.13981700  0.04036169  10601.18
  21  -356.72786486  -356.72791387    -0.00004901  0.00468138  0.00503348  0.00016778  0.23241492  0.30000000  0.08660254  10802.90
  22  -356.72791387  -356.72790981     0.00000406  0.00310798  0.00520790  0.00017360  0.03350992  0.06115863  0.01765498  10974.09
  23  -356.72790981  -356.72794136    -0.00003155  0.00629844  0.00750882  0.00025029  0.17758458  0.19489189  0.05626044  11149.32
  24  -356.72794136  -356.72790786     0.00003349  0.00735671  0.00844971  0.00028166  0.09436104  0.11397931  0.03290299  11321.94
  25  -356.72790786  -356.72795882    -0.00005095  0.00543501  0.00789215  0.00026307  0.09411901  0.11633392  0.03358271  11495.64
  26  -356.72795882  -356.72796128    -0.00000246  0.00339933  0.00510993  0.00017033  0.07595998  0.08944164  0.02581958  11671.24
  27  -356.72796128  -356.72796120     0.00000008  0.00142417  0.00308052  0.00010268  0.08564848  0.10843881  0.03130359  11844.81
  28  -356.72796120  -356.72797106    -0.00000986  0.00329771  0.00470730  0.00015691  0.07846199  0.09150150  0.02641421  12017.51
  29  -356.72797106  -356.72796708     0.00000398  0.00129019  0.00192621  0.00006421  0.07942950  0.10534320  0.03040996  12192.05
  30  -356.72796708  -356.72795291     0.00001417  0.00095514  0.00211408  0.00007047  0.02898551  0.04446476  0.01283587  12349.41
  31  -356.72795291  -356.72795764    -0.00000473  0.00250462  0.00279156  0.00009305  0.02325931  0.02773525  0.00800648  12507.36
  32  -356.72795764  -356.72796829    -0.00001065  0.00116515  0.00153951  0.00005132  0.09729168  0.10960489  0.03164021  12679.34
  33  -356.72796829  -356.72799803    -0.00002974  0.00111668  0.00177140  0.00005905  0.22673857  0.26461740  0.07638846  12871.29
  34  -356.72799803  -356.72798323     0.00001480  0.00314822  0.00446067  0.00014869  0.03442441  0.05125663  0.01479651  13029.85
  35  -356.72798323  -356.72799785    -0.00001462  0.00371185  0.00510342  0.00017011  0.03631230  0.04315591  0.01245804  13203.39
  36  -356.72799785  -356.72801782    -0.00001996  0.00155242  0.00261170  0.00008706  0.08774114  0.10651399  0.03074794  13376.09
  37  -356.72801782  -356.72805291    -0.00003509  0.00108807  0.00211320  0.00007044  0.02902553  0.03721349  0.01074261  13535.93
  38  -356.72805291  -356.72805281     0.00000010  0.00254552  0.00280677  0.00009356  0.05354396  0.06156027  0.01777092  13693.57
  39  -356.72805281  -356.72804558     0.00000723  0.00108708  0.00154794  0.00005160  0.06786413  0.08017959  0.02314585  13865.57
  40  -356.72804558  -356.72803858     0.00000700  0.00117273  0.00171963  0.00005732  0.02097524  0.03064228  0.00884566  14008.68
  41  -356.72803858  -356.72802900     0.00000958  0.00085187  0.00104505  0.00003484  0.03563064  0.05318246  0.01535245  14168.16
  42  -356.72802900  -356.72799615     0.00003285  0.00120556  0.00148125  0.00004937  0.03933991  0.06099690  0.01760829  14341.84
  43  -356.72799615  -356.72799137     0.00000478  0.00063428  0.00108693  0.00003623  0.11101455  0.14908965  0.04303847  14515.83
  44  -356.72799137  -356.72798050     0.00001087  0.00138217  0.00191545  0.00006385  0.24110156  0.26759293  0.07724743  14692.52
  45  -356.72798050  -356.72793474     0.00004576  0.00082236  0.00184898  0.00006163  0.17513724  0.23584408  0.06808232  14872.76
  46  -356.72793474  -356.72795446    -0.00001972  0.00765618  0.00995774  0.00033192  0.10623474  0.14477827  0.04179389  15050.04
  47  -356.72795446  -356.72796263    -0.00000817  0.00105083  0.00199392  0.00006646  0.02173798  0.02993118  0.00864039  15202.39
  48  -356.72796263  -356.72795753     0.00000510  0.00070684  0.00120862  0.00004029  0.06718828  0.07825832  0.02259123  15369.36
  49  -356.72795753  -356.72796276    -0.00000523  0.00078783  0.00101286  0.00003376  0.19046381  0.21908361  0.06324399  15535.10
  50  -356.72796276  -356.72796857    -0.00000581  0.00402823  0.00473664  0.00015789  0.09950290  0.11481173  0.03314329  15696.36
  51  -356.72796857  -356.72794812     0.00002044  0.00034392  0.00060700  0.00002023  0.01755277  0.02059935  0.00594652  15832.61
  52  -356.72794812  -356.72796781    -0.00001968  0.00080681  0.00089889  0.00002996  0.01649503  0.02577557  0.00744077  15966.33
  53  -356.72796781  -356.72796591     0.00000190  0.00129327  0.00140961  0.00004699  0.02302685  0.03512658  0.01014017  16116.67
  54  -356.72796591  -356.72794971     0.00001620  0.00102472  0.00111332  0.00003711  0.17161472  0.30000000  0.08660254  16297.63
  55  -356.72794971  -356.72795405    -0.00000435  0.00799390  0.00996427  0.00033214  0.12171974  0.23494275  0.06782213  16476.91
  56  -356.72795405  -356.72796799    -0.00001394  0.00083704  0.00123275  0.00004109  0.00937700  0.01821125  0.00525713  16612.38
  57  -356.72796799  -356.72797759    -0.00000960  0.00018207  0.00039132  0.00001304  0.06743606  0.10187002  0.02940734  16777.44
  58  -356.72797759  -356.72799693    -0.00001934  0.00285514  0.00329411  0.00010980  0.02150788  0.02891626  0.00834740  16931.22
  59  -356.72799693  -356.72798393     0.00001300  0.00115090  0.00126564  0.00004219  0.03502468  0.04486409  0.01295115  17068.14
  60  -356.72798393  -356.72799255    -0.00000861  0.00045734  0.00055367  0.00001846  0.06934808  0.08917324  0.02574210  17220.17
  61  -356.72799255  -356.72796918     0.00002337  0.00081552  0.00108598  0.00003620  0.01594944  0.02106024  0.00607957  17357.44
  62  -356.72796918  -356.72795680     0.00001237  0.00070317  0.00081797  0.00002727  0.01280627  0.02755517  0.00795449  17508.77
  63  -356.72795680  -356.72800990    -0.00005309  0.00013462  0.00035525  0.00001184  0.11460018  0.17857149  0.05154915  17676.01
  64  -356.72800990  -356.72800246     0.00000743  0.00415535  0.00483229  0.00016108  0.07043348  0.10621263  0.03066095  17845.35
  65  -356.72800246  -356.72800253    -0.00000007  0.00034931  0.00063460  0.00002115  0.02075291  0.03832788  0.01106431  18000.60
  66  -356.72800253  -356.72800739    -0.00000486  0.00023528  0.00051325  0.00001711  0.07537292  0.13410167  0.03871182  18168.17
  67  -356.72800739  -356.72799763     0.00000976  0.00299800  0.00361971  0.00012066  0.05526375  0.09340493  0.02696368  18337.19
  68  -356.72799763  -356.72799298     0.00000466  0.00066166  0.00081011  0.00002700  0.01590528  0.03144021  0.00907601  18487.47
  69  -356.72799298  -356.72800316    -0.00001018  0.00047978  0.00056348  0.00001878  0.04760380  0.10108180  0.02917980  18652.00
  70  -356.72800316  -356.72800978    -0.00000662  0.00178335  0.00212147  0.00007072  0.01087205  0.02245304  0.00648163  18787.72
  71  -356.72800978  -356.72800431     0.00000547  0.00085324  0.00095648  0.00003188  0.01680554  0.02816570  0.00813074  18920.41
  72  -356.72800431  -356.72801603    -0.00001172  0.00054421  0.00073831  0.00002461  0.04166514  0.08648380  0.02496572  19085.47
  73  -356.72801603  -356.72801095     0.00000508  0.00107731  0.00133521  0.00004451  0.01855015  0.02703200  0.00780347  19218.28
  74  -356.72801095  -356.72797135     0.00003960  0.00042402  0.00071896  0.00002397  0.08268953  0.14130315  0.04079071  19385.22
  75  -356.72797135  -356.72795341     0.00001795  0.00200304  0.00246873  0.00008229  0.01620832  0.03287331  0.00948971  19533.23
  76  -356.72795341  -356.72797306    -0.00001965  0.00017532  0.00041227  0.00001374  0.02127424  0.03459451  0.00998657  19685.91
  77  -356.72797306  -356.54706119     0.18091186  0.00043533  0.00063102  0.00002103  0.20298859  0.30000000  0.08660254  19879.85
  78  -356.54706119  -356.72706120    -0.18000001  1.33726583  1.65830556  0.05527685  0.18831925  0.26759369  0.07724764  20072.04
  79  -356.72706120  -356.72779567    -0.00073447  0.04626329  0.06564268  0.00218809  0.08885880  0.17765930  0.05128582  20244.10
  80  -356.72779567  -356.72761551     0.00018016  0.01818498  0.02549059  0.00084969  0.14514956  0.30000000  0.08660254  20418.41
  81  -356.72761551  -356.72780236    -0.00018685  0.02964397  0.04142042  0.00138068  0.15307562  0.30000000  0.08660254  20590.07
  82  -356.72780236  -356.72791724    -0.00011488  0.01526399  0.02507629  0.00083588  0.20646948  0.30000000  0.08660254  20762.64
  83  -356.72791724  -356.72789202     0.00002523  0.00449328  0.00863783  0.00028793  0.23383834  0.30000000  0.08660254  20935.20
  84  -356.72789202  -356.72793971    -0.00004770  0.01150924  0.01719955  0.00057332  0.21615556  0.30000000  0.08660254  21093.40
  85  -356.72793971  -356.72796728    -0.00002756  0.00413200  0.00682166  0.00022739  0.23430879  0.30000000  0.08660254  21251.84
  86  -356.72796728  -356.72797417    -0.00000689  0.00325675  0.00592278  0.00019743  0.10619656  0.12603573  0.03638338  21410.65
  87  -356.72797417  -356.72797973    -0.00000556  0.00076870  0.00191168  0.00006372  0.03369174  0.03554848  0.01026196  21540.91
  88  -356.72797973  -356.72798470    -0.00000497  0.00100890  0.00180422  0.00006014  0.05298471  0.06716139  0.01938782  21685.20
  89  -356.72798470  -356.72798205     0.00000265  0.00026740  0.00065067  0.00002169  0.02724403  0.03544899  0.01023324  21829.52
  90  -356.72798205  -356.72797948     0.00000257  0.00074150  0.00101383  0.00003379  0.02254454  0.03268065  0.00943409  21960.79
  91  -356.72797948  -356.72798159    -0.00000211  0.00063836  0.00082022  0.00002734  0.02331655  0.02695157  0.00778025  22106.15
  92  -356.72798159  -356.72797864     0.00000295  0.00030043  0.00044507  0.00001484  0.02557067  0.03718191  0.01073349  22251.77
 Freezing grid
  93  -356.72797864  -356.72798036    -0.00000173  0.00029640  0.00042344  0.00001411  0.00509597  0.00707309  0.00204182  22411.41
  94  -356.72798036  -356.72798194    -0.00000158  0.00019303  0.00032923  0.00001097  0.01715232  0.02949925  0.00851570  22542.10
  95  -356.72798194  -356.72798295    -0.00000102  0.00034313  0.00048834  0.00001628  0.02453344  0.04465195  0.01288991  22685.51
  96  -356.72798295  -356.72798351    -0.00000055  0.00082031  0.00104631  0.00003488  0.03093054  0.04176102  0.01205537  22830.25
  97  -356.72798351  -356.72798440    -0.00000089  0.00062886  0.00091399  0.00003047  0.02927727  0.04569676  0.01319152  22974.13
  98  -356.72798440  -356.72798542    -0.00000102  0.00103749  0.00137920  0.00004597  0.03348285  0.05840098  0.01685891  23132.03
  99  -356.72798542  -356.72798543    -0.00000001  0.00038138  0.00074461  0.00002482  0.03559828  0.07456855  0.02152609  23290.51
 100  -356.72798543  -356.72798780    -0.00000237  0.00292537  0.00399034  0.00013301  0.04941600  0.06547908  0.01890218  23448.41
 ? Warning
 ? No convergence in max. number of iterations

 END OF GEOMETRY OPTIMIZATION.

 Current geometry (xyz format, in Angstrom)

   12
 DF-KS-SCF000/VTZ,I=VTZ-PP,SN=VTZ-PP  ENERGY=-356.72798780
 C         -1.8274633432       -0.4439256162       -0.0232346502
 N         -0.4321778156       -0.0845774178        0.0717210984
 C          0.4385824466       -0.9928804042       -0.0241740443
 C          1.9066395800       -0.6891889689        0.0714883790
 O          2.3775176581        0.4061753914        0.2244867875
 N          1.0114928316        3.5026762475       -0.4510268726
 N          0.3988049646        3.4569959549        0.4509815540
 H         -2.2800082637        0.1271320058       -0.8362763784
 H         -2.3298764920       -0.1297641642        0.8938347917
 H         -2.0030479514       -1.5145674243       -0.1865731269
 H          0.1848620006       -2.0516818539       -0.1785071256
 H          2.5546743844       -1.5863937503       -0.0127204125

 **********************************************************************************************************************************

 Geometry written to block  1 of record 700


 **********************************************************************************************************************************
 DATASETS  * FILE   NREC   LENGTH (MB)   RECORD NAMES
              1      20       34.62       500      610      700      900      700(1)   950      970     1000      129      960   
                                          VAR    BASINP    GEOM    SYMINP    GEOM     ZMAT    AOBASIS   BASIS     P2S    ABASIS    
                                         1100     1400     1410     1200     1210     1080     1600     1650     1700     1800   
                                           S        T        V       H0       H01     AOSYM     SMH    MOLCAS    OPER     GRID   

              2       9        6.19       700     1000      520     1800     2100     5300     5500     5300(1)   700(1)
                                         GEOM     BASIS   MCVARS    GRID      RKS     HESS     HINFO    HESS     GEOM   

 PROGRAMS   *        TOTAL      OPTG     DF-KS       INT
 CPU TIMES  *     23711.13  23448.42    261.94      0.68
 REAL TIME  *      3284.76 SEC
 DISK USED  *       134.09 MB
 **********************************************************************************************************************************
 Molecular orbitals read from record     2100.2  Type=RKS/CANONICAL (state 1.1)
 Occupation numbers read from record     2100.2  Type=RKS/RHF (state 1.1)
 Orbital energies read from record       2100.2  Type=RKS/CANONICAL (state 1.1)
 Redundancy group numbers read from rec  2100.2  Type=RKS/RHF (state 1.1)

 DF-KS/cc-pVTZ,I=VTZ-PP,SN=VTZ-PP//DF-KS/cc-pVTZ,I=VTZ-PP,SN=VTZ-PP energy=   -356.727987802174

     OPTG(DF-KS)           DF-KS
   -356.72798780   -356.72717157
 **********************************************************************************************************************************
 Molpro calculation terminated with 1 warning(s)
